[0] MPI startup(): I_MPI_TCP_NETMASK variable has been removed from the product, its value is ignored


     Program PWSCF v.7.2 starts on 12Mar2024 at 18:24:30 

     This program is part of the open-source Quantum ESPRESSO suite
     for quantum simulation of materials; please cite
         "P. Giannozzi et al., J. Phys.:Condens. Matter 21 395502 (2009);
         "P. Giannozzi et al., J. Phys.:Condens. Matter 29 465901 (2017);
         "P. Giannozzi et al., J. Chem. Phys. 152 154105 (2020);
          URL http://www.quantum-espresso.org", 
     in publications or presentations arising from this work. More details at
     http://www.quantum-espresso.org/quote

     Parallel version (MPI), running on    16 processors

     MPI processes distributed on     1 nodes
     28624 MiB available memory on the printing compute node when the environment starts
 
     Reading input from espresso.pwi
Warning: card &CELL ignored
Warning: card / ignored

     Current dimensions of program PWSCF are:
     Max number of different atomic species (ntypx) = 10
     Max number of k-points (npk) =  40000
     Max angular momentum in pseudopotentials (lmaxx) =  4
     Presently no symmetry can be used with electric field


     IMPORTANT: XC functional enforced from input :
     Exchange-correlation= VDW-DF2-B86R
                           (   1   4  26   0   2   0   0)
     Any further DFT definition will be discarded
     Please, verify this is what you really want

 
     R & G space division:  proc/nbgrp/npool/nimage =      16
     Subspace diagonalization in iterative solution of the eigenvalue problem:
     a serial algorithm will be used

 
     Parallelization info
     --------------------
     sticks:   dense  smooth     PW     G-vecs:    dense   smooth      PW
     Min          67      34     10                 7115     2515     444
     Max          68      36     11                 7126     2519     463
     Sum        1085     551    167               113933    40273    7201
 
     Using Slab Decomposition
 


     bravais-lattice index     =            0
     lattice parameter (alat)  =       5.6973  a.u.
     unit-cell volume          =     642.1518 (a.u.)^3
     number of atoms/cell      =            4
     number of atomic types    =            2
     number of electrons       =         8.00
     number of Kohn-Sham states=            8
     kinetic-energy cutoff     =      60.0000  Ry
     charge density cutoff     =     480.0000  Ry
     scf convergence threshold =      1.0E-06
     mixing beta               =       0.7000
     number of iterations used =            8  plain     mixing
     Exchange-correlation= VDW-DF2-B86R
                           (   1   4  26   0   2   0   0)

     celldm(1)=   5.697334  celldm(2)=   0.000000  celldm(3)=   0.000000
     celldm(4)=   0.000000  celldm(5)=   0.000000  celldm(6)=   0.000000

     crystal axes: (cart. coord. in units of alat)
               a(1) = (   0.999994  -0.003591   0.000000 )  
               a(2) = (   0.503167   0.875437   0.000000 )  
               a(3) = (   0.000000   0.000000   3.958265 )  

     reciprocal axes: (cart. coord. in units 2 pi/alat)
               b(1) = (  0.997946 -0.573581  0.000000 )  
               b(2) = (  0.004094  1.139933  0.000000 )  
               b(3) = (  0.000000  0.000000  0.252636 )  


     PseudoPot. # 1 for B  read from file:
     /home/krojas/QE/pseudo/b_pbe_v1.4.uspp.F.UPF
     MD5 check sum: cc6de2960df11db49a60e589f9ebb39b
     Pseudo is Ultrasoft + core correction, Zval =  3.0
     Generated by new atomic code, or converted to UPF format
     Using radial grid of  781 points,  4 beta functions with: 
                l(1) =   0
                l(2) =   0
                l(3) =   1
                l(4) =   1
     Q(r) pseudized with  8 coefficients,  rinner =    1.100   1.100   1.100


     PseudoPot. # 2 for H  read from file:
     /home/krojas/QE/pseudo/h_pbe_v1.4.uspp.F.UPF
     MD5 check sum: 761ae9a214b05c3daf00ab9f6b793d6f
     Pseudo is Ultrasoft, Zval =  1.0
     Generated by new atomic code, or converted to UPF format
     Using radial grid of  615 points,  2 beta functions with: 
                l(1) =   0
                l(2) =   0
     Q(r) pseudized with  8 coefficients,  rinner =    0.700

     atomic species   valence    mass     pseudopotential
        B              3.00    10.81000     B ( 1.00)
        H              1.00     1.00800     H ( 1.00)

     No symmetry found



   Cartesian axes

     site n.     atom                  positions (alat units)
         1           B   tau(   1) = (  -0.0033169   0.0000000   1.9791325  )
         2           B   tau(   2) = (   0.5009657   0.2715580   1.9791325  )
         3           H   tau(   3) = (   0.5020846   0.5735104   2.2998349  )
         4           H   tau(   4) = (   0.5020846   0.5735104   1.6584302  )

     number of k points=    74  Gaussian smearing, width (Ry)=  0.0100
                       cart. coord. in units 2pi/alat
        k(    1) = (   0.0000000   0.0000000   0.0000000), wk =   0.0138889
        k(    2) = (   0.0003412   0.0949944   0.0000000), wk =   0.0277778
        k(    3) = (   0.0006823   0.1899889   0.0000000), wk =   0.0277778
        k(    4) = (   0.0010235   0.2849833   0.0000000), wk =   0.0277778
        k(    5) = (   0.0013646   0.3799777   0.0000000), wk =   0.0277778
        k(    6) = (   0.0017058   0.4749722   0.0000000), wk =   0.0277778
        k(    7) = (  -0.0020470  -0.5699666   0.0000000), wk =   0.0138889
        k(    8) = (   0.0831622  -0.0477984   0.0000000), wk =   0.0277778
        k(    9) = (   0.0835034   0.0471960   0.0000000), wk =   0.0277778
        k(   10) = (   0.0838445   0.1421905   0.0000000), wk =   0.0277778
        k(   11) = (   0.0841857   0.2371849   0.0000000), wk =   0.0277778
        k(   12) = (   0.0845269   0.3321793   0.0000000), wk =   0.0277778
        k(   13) = (   0.0848680   0.4271738   0.0000000), wk =   0.0277778
        k(   14) = (   0.0811152  -0.6177650   0.0000000), wk =   0.0277778
        k(   15) = (   0.0814564  -0.5227706   0.0000000), wk =   0.0277778
        k(   16) = (   0.0817976  -0.4277762   0.0000000), wk =   0.0277778
        k(   17) = (   0.0821387  -0.3327817   0.0000000), wk =   0.0277778
        k(   18) = (   0.0824799  -0.2377873   0.0000000), wk =   0.0277778
        k(   19) = (   0.0828210  -0.1427928   0.0000000), wk =   0.0277778
        k(   20) = (   0.1663244  -0.0955968   0.0000000), wk =   0.0277778
        k(   21) = (   0.1666656  -0.0006024   0.0000000), wk =   0.0277778
        k(   22) = (   0.1670067   0.0943921   0.0000000), wk =   0.0277778
        k(   23) = (   0.1673479   0.1893865   0.0000000), wk =   0.0277778
        k(   24) = (   0.1676891   0.2843809   0.0000000), wk =   0.0277778
        k(   25) = (   0.1680302   0.3793754   0.0000000), wk =   0.0277778
        k(   26) = (   0.1642774  -0.6655634   0.0000000), wk =   0.0277778
        k(   27) = (   0.1646186  -0.5705690   0.0000000), wk =   0.0277778
        k(   28) = (   0.1649598  -0.4755746   0.0000000), wk =   0.0277778
        k(   29) = (   0.1653009  -0.3805801   0.0000000), wk =   0.0277778
        k(   30) = (   0.1656421  -0.2855857   0.0000000), wk =   0.0277778
        k(   31) = (   0.1659833  -0.1905913   0.0000000), wk =   0.0277778
        k(   32) = (   0.2494866  -0.1433952   0.0000000), wk =   0.0277778
        k(   33) = (   0.2498278  -0.0484008   0.0000000), wk =   0.0277778
        k(   34) = (   0.2501689   0.0465936   0.0000000), wk =   0.0277778
        k(   35) = (   0.2505101   0.1415881   0.0000000), wk =   0.0277778
        k(   36) = (   0.2508513   0.2365825   0.0000000), wk =   0.0277778
        k(   37) = (   0.2511924   0.3315769   0.0000000), wk =   0.0277778
        k(   38) = (   0.2474397  -0.7133618   0.0000000), wk =   0.0277778
        k(   39) = (   0.2477808  -0.6183674   0.0000000), wk =   0.0277778
        k(   40) = (   0.2481220  -0.5233730   0.0000000), wk =   0.0277778
        k(   41) = (   0.2484631  -0.4283785   0.0000000), wk =   0.0277778
        k(   42) = (   0.2488043  -0.3333841   0.0000000), wk =   0.0277778
        k(   43) = (   0.2491455  -0.2383897   0.0000000), wk =   0.0277778
        k(   44) = (   0.3326488  -0.1911936   0.0000000), wk =   0.0277778
        k(   45) = (   0.3329900  -0.0961992   0.0000000), wk =   0.0277778
        k(   46) = (   0.3333312  -0.0012048   0.0000000), wk =   0.0277778
        k(   47) = (   0.3336723   0.0937897   0.0000000), wk =   0.0277778
        k(   48) = (   0.3340135   0.1887841   0.0000000), wk =   0.0277778
        k(   49) = (   0.3343546   0.2837785   0.0000000), wk =   0.0277778
        k(   50) = (   0.3306019  -0.7611603   0.0000000), wk =   0.0277778
        k(   51) = (   0.3309430  -0.6661658   0.0000000), wk =   0.0277778
        k(   52) = (   0.3312842  -0.5711714   0.0000000), wk =   0.0277778
        k(   53) = (   0.3316253  -0.4761769   0.0000000), wk =   0.0277778
        k(   54) = (   0.3319665  -0.3811825   0.0000000), wk =   0.0277778
        k(   55) = (   0.3323077  -0.2861881   0.0000000), wk =   0.0277778
        k(   56) = (   0.4158110  -0.2389921   0.0000000), wk =   0.0277778
        k(   57) = (   0.4161522  -0.1439976   0.0000000), wk =   0.0277778
        k(   58) = (   0.4164934  -0.0490032   0.0000000), wk =   0.0277778
        k(   59) = (   0.4168345   0.0459913   0.0000000), wk =   0.0277778
        k(   60) = (   0.4171757   0.1409857   0.0000000), wk =   0.0277778
        k(   61) = (   0.4175169   0.2359801   0.0000000), wk =   0.0277778
        k(   62) = (   0.4137641  -0.8089587   0.0000000), wk =   0.0277778
        k(   63) = (   0.4141052  -0.7139642   0.0000000), wk =   0.0277778
        k(   64) = (   0.4144464  -0.6189698   0.0000000), wk =   0.0277778
        k(   65) = (   0.4147876  -0.5239754   0.0000000), wk =   0.0277778
        k(   66) = (   0.4151287  -0.4289809   0.0000000), wk =   0.0277778
        k(   67) = (   0.4154699  -0.3339865   0.0000000), wk =   0.0277778
        k(   68) = (  -0.4989732   0.2867905   0.0000000), wk =   0.0138889
        k(   69) = (  -0.4986321   0.3817849   0.0000000), wk =   0.0277778
        k(   70) = (  -0.4982909   0.4767793   0.0000000), wk =   0.0277778
        k(   71) = (  -0.4979498   0.5717738   0.0000000), wk =   0.0277778
        k(   72) = (  -0.4976086   0.6667682   0.0000000), wk =   0.0277778
        k(   73) = (  -0.4972674   0.7617626   0.0000000), wk =   0.0277778
        k(   74) = (  -0.5010202  -0.2831762   0.0000000), wk =   0.0138889

     Dense  grid:   113933 G-vectors     FFT dimensions: (  40,  45, 160)

     Smooth grid:    40273 G-vectors     FFT dimensions: (  30,  30, 120)

     Estimated max dynamical RAM per process >      13.53 MB

     Estimated total dynamical RAM >     216.40 MB

     Initial potential from superposition of free atoms

     starting charge       7.9994, renormalised to       8.0000

     negative rho (up, down):  1.264E-05 0.000E+00


     %%%%%%%%%%%%%%%%%%%%%%%%%%%%%%%%%%%%%%%%%%%%%%%%%%%%%%%%%%%%%%%%%%%%%%%%
     %                                                                      %
     % You are using vdW-DF, which was implemented by the Thonhauser group. %
     % Please cite the following two papers that made this development      %
     % possible and the two reviews that describe the various versions:     %
     %                                                                      %
     %   T. Thonhauser et al., PRL 115, 136402 (2015).                      %
     %   T. Thonhauser et al., PRB 76, 125112 (2007).                       %
     %   K. Berland et al., Rep. Prog. Phys. 78, 066501 (2015).             %
     %   D.C. Langreth et al., J. Phys.: Condens. Matter 21, 084203 (2009). %
     %                                                                      %
     % If you are calculating stress with vdW-DF, please also cite:         %
     %                                                                      %
     %   R. Sabatini et al., J. Phys.: Condens. Matter 24, 424209 (2012).   %
     %                                                                      %
     %%%%%%%%%%%%%%%%%%%%%%%%%%%%%%%%%%%%%%%%%%%%%%%%%%%%%%%%%%%%%%%%%%%%%%%%

     %%%%%%%%%%%%%%%%%%%%%%%%%%%%%%%%%%%%%%%%%%%%%%%%%%%%%%%%%%%%%%%%%%%%%%%%
     %                                                                      %
     %  vdW-DF NEWS:                                                        %
     %                                                                      %
     %  * vdW-DF3 is now available. DOI: 10.1021/acs.jctc.0c00471           %
     %    use with input_dft = 'vdW-DF3-opt1' or 'vdW-DF3-opt2'             %
     %                                                                      %
     %  * Unscreened and range-separated hybrid vdW-DF-cx functionals       %
     %    DOI: 10.1063/1.4986522 and 10.1088/1361-648X/ac2ad2               %
     %    use with input_dft = 'vdW-DF-cx0'    and 'vdW-DF-ahcx'            %
     %  * Unscreened and range-separated hybrid vdW-DF2-b86r functionals    %
     %    DOI: 10.1063/1.4986522 and DOI: 10.1103/PhysRevX.12.041003        %
     %    use with input_dft = 'vdW-DF2-br0' and 'vdW-DF2-ahbr'             %
     %                                                                      %
     %%%%%%%%%%%%%%%%%%%%%%%%%%%%%%%%%%%%%%%%%%%%%%%%%%%%%%%%%%%%%%%%%%%%%%%%


 
     Adding external electric field

     Computed dipole along edir(3) : 
        Dipole               -0.0000 Ry au,         -0.0000 Debye
        Dipole field         -0.0000 Ry au, 
 
        Potential amp.        0.0000 Ry
        Total length         22.5493 bohr
 
     Starting wfcs are   10 randomized atomic wfcs

     total cpu time spent up to now is       14.6 secs

     Self-consistent Calculation

     iteration #  1     ecut=    60.00 Ry     beta= 0.70
     Davidson diagonalization with overlap
     ethr =  1.00E-02,  avg # of iterations =  3.8

     negative rho (up, down):  1.268E-05 0.000E+00
 
     Adding external electric field

     Computed dipole along edir(3) : 
        Dipole               -0.0001 Ry au,         -0.0003 Debye
        Dipole field         -0.0000 Ry au, 
 
        Potential amp.        0.0001 Ry
        Total length         22.5493 bohr
 

     total cpu time spent up to now is       15.3 secs

     total energy              =     -15.04542738 Ry
     estimated scf accuracy    <       0.32925313 Ry

     iteration #  2     ecut=    60.00 Ry     beta= 0.70
     Davidson diagonalization with overlap
     ethr =  4.12E-03,  avg # of iterations =  3.8

     negative rho (up, down):  2.180E-05 0.000E+00
 
     Adding external electric field

     Computed dipole along edir(3) : 
        Dipole                0.0001 Ry au,          0.0003 Debye
        Dipole field          0.0000 Ry au, 
 
        Potential amp.       -0.0001 Ry
        Total length         22.5493 bohr
 

     total cpu time spent up to now is       16.0 secs

     total energy              =     -15.10075922 Ry
     estimated scf accuracy    <       0.01901367 Ry

     iteration #  3     ecut=    60.00 Ry     beta= 0.70
     Davidson diagonalization with overlap
     ethr =  2.38E-04,  avg # of iterations =  4.9

     negative rho (up, down):  3.102E-05 0.000E+00
 
     Adding external electric field

     Computed dipole along edir(3) : 
        Dipole               -0.0003 Ry au,         -0.0008 Debye
        Dipole field         -0.0000 Ry au, 
 
        Potential amp.        0.0003 Ry
        Total length         22.5493 bohr
 

     total cpu time spent up to now is       16.8 secs

     total energy              =     -15.10411941 Ry
     estimated scf accuracy    <       0.00059251 Ry

     iteration #  4     ecut=    60.00 Ry     beta= 0.70
     Davidson diagonalization with overlap
     ethr =  7.41E-06,  avg # of iterations =  5.7

     negative rho (up, down):  3.284E-05 0.000E+00
 
     Adding external electric field

     Computed dipole along edir(3) : 
        Dipole                0.0007 Ry au,          0.0019 Debye
        Dipole field          0.0000 Ry au, 
 
        Potential amp.       -0.0007 Ry
        Total length         22.5493 bohr
 

     total cpu time spent up to now is       17.6 secs

     total energy              =     -15.10421221 Ry
     estimated scf accuracy    <       0.00000744 Ry

     iteration #  5     ecut=    60.00 Ry     beta= 0.70
     Davidson diagonalization with overlap
     ethr =  9.30E-08,  avg # of iterations =  2.9

     negative rho (up, down):  3.325E-05 0.000E+00
 
     Adding external electric field

     Computed dipole along edir(3) : 
        Dipole               -0.0008 Ry au,         -0.0022 Debye
        Dipole field         -0.0000 Ry au, 
 
        Potential amp.        0.0007 Ry
        Total length         22.5493 bohr
 

     total cpu time spent up to now is       18.2 secs

     total energy              =     -15.10421474 Ry
     estimated scf accuracy    <       0.00000128 Ry

     iteration #  6     ecut=    60.00 Ry     beta= 0.70
     Davidson diagonalization with overlap
     ethr =  1.59E-08,  avg # of iterations =  2.0

     negative rho (up, down):  3.338E-05 0.000E+00
 
     Adding external electric field

     Computed dipole along edir(3) : 
        Dipole                0.0001 Ry au,          0.0002 Debye
        Dipole field          0.0000 Ry au, 
 
        Potential amp.       -0.0001 Ry
        Total length         22.5493 bohr
 

     total cpu time spent up to now is       18.8 secs

     total energy              =     -15.10421499 Ry
     estimated scf accuracy    <       0.00000116 Ry

     iteration #  7     ecut=    60.00 Ry     beta= 0.70
     Davidson diagonalization with overlap
     ethr =  1.45E-08,  avg # of iterations =  1.8

     negative rho (up, down):  3.346E-05 0.000E+00
 
     Adding external electric field

     Computed dipole along edir(3) : 
        Dipole               -0.0002 Ry au,         -0.0005 Debye
        Dipole field         -0.0000 Ry au, 
 
        Potential amp.        0.0002 Ry
        Total length         22.5493 bohr
 

     total cpu time spent up to now is       19.3 secs

     End of self-consistent calculation

          k = 0.0000 0.0000 0.0000 (  5017 PWs)   bands (ev):

   -14.5320  -8.8547  -3.0994  -0.6456   0.5635   1.9353   2.9052   5.5915

          k = 0.0003 0.0950 0.0000 (  4979 PWs)   bands (ev):

   -14.4333  -8.7371  -3.4858  -0.8925   0.6862   2.0763   3.0330   5.7005

          k = 0.0007 0.1900 0.0000 (  4988 PWs)   bands (ev):

   -14.1423  -8.3893  -4.4735  -1.4590   1.0701   2.4814   3.4235   3.9681

          k = 0.0010 0.2850 0.0000 (  5020 PWs)   bands (ev):

   -13.6772  -7.8311  -5.7402  -2.0750   1.7177   1.9059   3.2998   4.0492

          k = 0.0014 0.3800 0.0000 (  5038 PWs)   bands (ev):

   -13.0840  -7.1140  -7.0187  -2.5816   0.1866   2.5846   4.2668   4.6368

          k = 0.0017 0.4750 0.0000 (  5038 PWs)   bands (ev):

   -12.4874  -8.0640  -6.3821  -2.9058  -1.1727   3.4610   4.9183   5.5256

          k =-0.0020-0.5700 0.0000 (  5036 PWs)   bands (ev):

   -12.1972  -8.5093  -6.0192  -3.0168  -1.7474   3.7904   5.6264   6.1142

          k = 0.0832-0.0478 0.0000 (  5007 PWs)   bands (ev):

   -14.4335  -8.7537  -3.3848  -1.0207   0.6992   2.0765   3.0469   5.7002

          k = 0.0835 0.0472 0.0000 (  5007 PWs)   bands (ev):

   -14.4335  -8.7543  -3.3682  -1.0450   0.6994   2.0762   3.0471   5.6280

          k = 0.0838 0.1422 0.0000 (  5003 PWs)   bands (ev):

   -14.2389  -8.5239  -4.0506  -1.4604   0.9528   2.3508   3.3076   4.8660

          k = 0.0842 0.2372 0.0000 (  5010 PWs)   bands (ev):

   -13.8607  -8.0745  -5.1500  -2.0949   1.4735   2.6292   3.2092   3.8330

          k = 0.0845 0.3322 0.0000 (  5029 PWs)   bands (ev):

   -13.3289  -7.4393  -6.3906  -2.7083   1.0340   2.2482   3.8459   4.5650

          k = 0.0849 0.4272 0.0000 (  5030 PWs)   bands (ev):

   -12.7196  -7.5431  -6.7050  -3.1592  -0.4955   3.2021   4.9550   5.1263

          k = 0.0811-0.6178 0.0000 (  5055 PWs)   bands (ev):

   -12.2360  -8.3187  -6.1130  -3.3921  -1.4966   3.9963   5.5628   6.2832

          k = 0.0815-0.5228 0.0000 (  5055 PWs)   bands (ev):

   -12.2357  -8.3217  -6.1105  -3.3884  -1.5023   4.0010   5.5536   6.2885

          k = 0.0818-0.4278 0.0000 (  5030 PWs)   bands (ev):

   -12.7193  -7.5523  -6.7003  -3.1472  -0.5097   3.2061   4.9585   5.1314

          k = 0.0821-0.3328 0.0000 (  5029 PWs)   bands (ev):

   -13.3288  -7.4349  -6.4077  -2.6850   1.0141   2.2499   3.8476   4.5703

          k = 0.0825-0.2378 0.0000 (  5010 PWs)   bands (ev):

   -13.8608  -8.0712  -5.1769  -2.0574   1.4740   2.6165   3.1975   3.8348

          k = 0.0828-0.1428 0.0000 (  5003 PWs)   bands (ev):

   -14.2390  -8.5219  -4.0825  -1.4147   0.9525   2.3515   3.3078   4.8363

          k = 0.1663-0.0956 0.0000 (  5007 PWs)   bands (ev):

   -14.1444  -8.4605  -4.1558  -1.8659   1.1127   2.4884   3.4751   5.2914

          k = 0.1667-0.0006 0.0000 (  4991 PWs)   bands (ev):

   -14.2398  -8.5732  -3.7762  -1.8073   0.9844   2.3565   3.3434   5.9813

          k = 0.1670 0.0944 0.0000 (  5007 PWs)   bands (ev):

   -14.1443  -8.4632  -4.1056  -1.9344   1.1133   2.4873   3.4754   5.3446

          k = 0.1673 0.1894 0.0000 (  5031 PWs)   bands (ev):

   -13.8637  -8.1369  -4.9160  -2.3949   1.5036   2.7927   3.7332   3.8730

          k = 0.1677 0.2844 0.0000 (  5037 PWs)   bands (ev):

   -13.4186  -7.6181  -5.9179  -3.1124   1.8006   2.1597   3.7396   4.5399

          k = 0.1680 0.3794 0.0000 (  5046 PWs)   bands (ev):

   -12.8599  -6.9653  -6.9554  -3.7729   0.3160   3.0552   4.6611   5.4116

          k = 0.1643-0.6656 0.0000 (  5071 PWs)   bands (ev):

   -12.3140  -7.8314  -6.3251  -4.1980  -0.8541   4.0794   5.7864   6.1248

          k = 0.1646-0.5706 0.0000 (  5067 PWs)   bands (ev):

   -12.0577  -8.2096  -6.0212  -4.3368  -1.3426   4.6963   6.5079   6.8296

          k = 0.1650-0.4756 0.0000 (  5071 PWs)   bands (ev):

   -12.3131  -7.8460  -6.3171  -4.1804  -0.8755   4.0855   5.7990   6.1204

          k = 0.1653-0.3806 0.0000 (  5048 PWs)   bands (ev):

   -12.8593  -6.9860  -6.9558  -3.7343   0.2803   3.0582   4.6674   5.4196

          k = 0.1656-0.2856 0.0000 (  5037 PWs)   bands (ev):

   -13.4184  -7.6102  -5.9655  -3.0502   1.7568   2.1608   3.7400   4.5440

          k = 0.1660-0.1906 0.0000 (  5031 PWs)   bands (ev):

   -13.8637  -8.1315  -4.9748  -2.3149   1.5034   2.7883   3.6855   3.8743

          k = 0.2495-0.1434 0.0000 (  5031 PWs)   bands (ev):

   -13.6873  -8.0099  -5.2389  -2.7299   1.8059   2.9934   3.9550   4.1868

          k = 0.2498-0.0484 0.0000 (  5026 PWs)   bands (ev):

   -13.8664  -8.2138  -4.6018  -2.7830   1.5440   2.8954   3.9229   5.1115

          k = 0.2502 0.0466 0.0000 (  5026 PWs)   bands (ev):

   -13.8664  -8.2160  -4.5622  -2.8329   1.5445   2.8943   3.9234   5.1608

          k = 0.2505 0.1416 0.0000 (  5031 PWs)   bands (ev):

   -13.6874  -8.0164  -5.1691  -2.8237   1.8069   3.0016   4.0173   4.1862

          k = 0.2509 0.2366 0.0000 (  5038 PWs)   bands (ev):

   -13.3443  -7.6325  -5.9341  -3.2914   2.2126   2.3291   3.9610   4.7043

          k = 0.2512 0.3316 0.0000 (  5053 PWs)   bands (ev):

   -12.8757  -7.1091  -6.6713  -4.1087   0.9902   3.1053   4.6887   5.5076

          k = 0.2474-0.7134 0.0000 (  5056 PWs)   bands (ev):

   -12.3677  -7.3225  -6.5439  -4.8637  -0.0712   4.0813   5.5433   6.4641

          k = 0.2478-0.6184 0.0000 (  5062 PWs)   bands (ev):

   -11.9980  -7.7657  -6.1334  -5.2806  -0.7406   5.0225   5.9052   6.9800

          k = 0.2481-0.5234 0.0000 (  5062 PWs)   bands (ev):

   -11.9970  -7.7816  -6.1271  -5.2629  -0.7582   5.0276   5.9224   6.9519

          k = 0.2485-0.4284 0.0000 (  5056 PWs)   bands (ev):

   -12.3661  -7.3664  -6.5304  -4.8126  -0.1170   4.0851   5.5657   6.4697

          k = 0.2488-0.3334 0.0000 (  5053 PWs)   bands (ev):

   -12.8748  -7.0954  -6.7336  -4.0315   0.9286   3.1069   4.6950   5.5164

          k = 0.2491-0.2384 0.0000 (  5038 PWs)   bands (ev):

   -13.3440  -7.6219  -6.0049  -3.1977   2.1508   2.3290   3.9538   4.7111

          k = 0.3326-0.1912 0.0000 (  5036 PWs)   bands (ev):

   -13.1179  -7.4777  -6.4090  -3.3829   2.1494   2.7639   4.3943   4.7854

          k = 0.3330-0.0962 0.0000 (  5043 PWs)   bands (ev):

   -13.3499  -7.7252  -5.7061  -3.5698   2.3743   3.1492   4.0442   4.7809

          k = 0.3333-0.0012 0.0000 (  5043 PWs)   bands (ev):

   -13.4305  -7.8136  -5.2367  -3.9207   2.2425   3.5419   4.1843   4.6475

          k = 0.3337 0.0938 0.0000 (  5043 PWs)   bands (ev):

   -13.3501  -7.7316  -5.6428  -3.6496   2.3754   3.1853   4.0765   4.7818

          k = 0.3340 0.1888 0.0000 (  5036 PWs)   bands (ev):

   -13.1186  -7.4900  -6.3386  -3.4787   2.2209   2.7653   4.4056   4.7347

          k = 0.3344 0.2838 0.0000 (  5056 PWs)   bands (ev):

   -12.7692  -7.1252  -6.9213  -3.9345   1.2864   3.3982   5.0447   5.1053

          k = 0.3306-0.7612 0.0000 (  5051 PWs)   bands (ev):

   -12.3705  -7.2749  -6.7088  -4.8198   0.5440   4.2419   5.7050   6.2787

          k = 0.3309-0.6662 0.0000 (  5056 PWs)   bands (ev):

   -12.0369  -7.3558  -6.3572  -5.7036   0.0470   5.1247   5.4812   7.1307

          k = 0.3313-0.5712 0.0000 (  5049 PWs)   bands (ev):

   -11.9030  -7.3175  -6.2109  -6.1020  -0.1474   5.2379   5.5458   7.5017

          k = 0.3316-0.4762 0.0000 (  5056 PWs)   bands (ev):

   -12.0346  -7.4133  -6.3444  -5.6410   0.0017   5.1296   5.5164   7.1078

          k = 0.3320-0.3812 0.0000 (  5051 PWs)   bands (ev):

   -12.3680  -7.3438  -6.6906  -4.7379   0.4715   4.2446   5.7333   6.3557

          k = 0.3323-0.2862 0.0000 (  5056 PWs)   bands (ev):

   -12.7677  -7.1083  -6.9917  -3.8421   1.2065   3.3985   5.0454   5.1674

          k = 0.4158-0.2390 0.0000 (  5035 PWs)   bands (ev):

   -12.5705  -7.3766  -7.0090  -3.7757   1.1615   3.9291   4.5909   5.6240

          k = 0.4162-0.1440 0.0000 (  5059 PWs)   bands (ev):

   -12.7765  -7.2057  -6.8173  -4.0571   1.8914   3.4470   4.9593   5.2150

          k = 0.4165-0.0490 0.0000 (  5060 PWs)   bands (ev):

   -12.8948  -7.3202  -6.1219  -4.7321   2.7261   3.1922   4.3858   5.6352

          k = 0.4168 0.0460 0.0000 (  5060 PWs)   bands (ev):

   -12.8952  -7.3246  -6.0717  -4.7891   2.7670   3.1928   4.3802   5.6359

          k = 0.4172 0.1410 0.0000 (  5059 PWs)   bands (ev):

   -12.7777  -7.2182  -6.7514  -4.1419   1.9655   3.4489   4.9647   5.1655

          k = 0.4175 0.2360 0.0000 (  5035 PWs)   bands (ev):

   -12.5729  -7.3097  -7.0280  -3.8670   1.2480   3.9306   4.5441   5.6283

          k = 0.4138-0.8090 0.0000 (  5051 PWs)   bands (ev):

   -12.3411  -7.5663  -6.8046  -4.2826   0.8175   4.5556   5.0217   6.3295

          k = 0.4141-0.7140 0.0000 (  5056 PWs)   bands (ev):

   -12.1554  -7.4390  -6.6103  -5.1683   0.6883   5.0927   5.7272   6.2610

          k = 0.4144-0.6190 0.0000 (  5053 PWs)   bands (ev):

   -12.0596  -6.9245  -6.4966  -6.1451   0.7251   4.9274   5.2015   7.2624

          k = 0.4148-0.5240 0.0000 (  5053 PWs)   bands (ev):

   -12.0583  -6.9941  -6.4900  -6.0722   0.6944   4.9488   5.2025   7.2542

          k = 0.4151-0.4290 0.0000 (  5056 PWs)   bands (ev):

   -12.1522  -7.5081  -6.5931  -5.0883   0.6155   5.0968   5.7735   6.3163

          k = 0.4155-0.3340 0.0000 (  5051 PWs)   bands (ev):

   -12.3378  -7.6341  -6.7833  -4.1951   0.7295   4.5619   5.0675   6.3448

          k =-0.4990 0.2868 0.0000 (  5038 PWs)   bands (ev):

   -12.3195  -7.7768  -6.8129  -3.9064   0.7800   4.5052   4.8322   6.2492

          k =-0.4986 0.3818 0.0000 (  5049 PWs)   bands (ev):

   -12.3431  -7.5769  -6.8262  -4.2636   0.9648   4.6115   5.0534   6.1778

          k =-0.4983 0.4768 0.0000 (  5054 PWs)   bands (ev):

   -12.3885  -7.0248  -6.8534  -5.0917   1.4270   4.3220   5.1773   6.3952

          k =-0.4979 0.5718 0.0000 (  5075 PWs)   bands (ev):

   -12.4109  -6.8702  -6.3857  -5.8563   1.7641   4.2120   4.6291   6.6818

          k =-0.4976 0.6668 0.0000 (  5054 PWs)   bands (ev):

   -12.3902  -6.9592  -6.8643  -5.1671   1.4890   4.3229   5.1528   6.3421

          k =-0.4973 0.7618 0.0000 (  5049 PWs)   bands (ev):

   -12.3462  -7.5109  -6.8454  -4.3485   1.0503   4.6125   5.0047   6.1710

          k =-0.5010-0.2832 0.0000 (  5038 PWs)   bands (ev):

   -12.3233  -7.7109  -6.8353  -3.9955   0.8716   4.4594   4.8341   6.2582

     the Fermi energy is    -1.2483 ev

!    total energy              =     -15.10421520 Ry
     estimated scf accuracy    <       0.00000001 Ry
     smearing contrib. (-TS)   =      -0.00015610 Ry
     internal energy E=F+TS    =     -15.10405910 Ry

     The total energy is F=E-TS. E is the sum of the following terms:
     one-electron contribution =     -65.62267823 Ry
     hartree contribution      =      34.37202742 Ry
     xc contribution           =      -7.33891331 Ry
     ewald contribution        =      23.48550502 Ry
     electric field correction =       0.00000000 Ry

     convergence has been achieved in   7 iterations

     negative rho (up, down):  3.346E-05 0.000E+00

     Forces acting on atoms (cartesian axes, Ry/au):

     atom    1 type  1   force =     0.00823319    0.00395692   -0.00000095
     atom    2 type  1   force =    -0.00781309   -0.00394396   -0.00000109
     atom    3 type  2   force =    -0.00021008   -0.00000646    0.00107866
     atom    4 type  2   force =    -0.00021002   -0.00000649   -0.00107662
     The non-local contrib.  to forces
     atom    1 type  1   force =     0.01156953   -0.35214861   -0.00001657
     atom    2 type  1   force =    -0.00962078    0.35216635   -0.00001642
     atom    3 type  2   force =    -0.00069545    0.00000220   -0.11397095
     atom    4 type  2   force =    -0.00069552    0.00000219    0.11397611
     The ionic contribution  to forces
     atom    1 type  1   force =     0.01803843    0.69499672    0.00000000
     atom    2 type  1   force =    -0.02694408   -0.69496294    0.00000000
     atom    3 type  2   force =     0.00445282   -0.00001689    2.57656205
     atom    4 type  2   force =     0.00445282   -0.00001689   -2.57656205
     The local contribution  to forces
     atom    1 type  1   force =    -0.02099472   -0.34659029    0.00013108
     atom    2 type  1   force =     0.02837638    0.34655250    0.00013075
     atom    3 type  2   force =    -0.00396715    0.00000824   -2.46148688
     atom    4 type  2   force =    -0.00396728    0.00000814    2.46152662
     The core correction contribution to forces
     atom    1 type  1   force =    -0.00038024    0.00767710    0.00000043
     atom    2 type  1   force =     0.00037600   -0.00767783    0.00000043
     atom    3 type  2   force =     0.00000000    0.00000000    0.00000000
     atom    4 type  2   force =     0.00000000    0.00000000    0.00000000
     The Hubbard contrib.    to forces
     atom    1 type  1   force =     0.00000000    0.00000000    0.00000000
     atom    2 type  1   force =     0.00000000    0.00000000    0.00000000
     atom    3 type  2   force =     0.00000000    0.00000000    0.00000000
     atom    4 type  2   force =     0.00000000    0.00000000    0.00000000
     The SCF correction term to forces
     atom    1 type  1   force =     0.00000025    0.00002203   -0.00014139
     atom    2 type  1   force =    -0.00000054   -0.00002202   -0.00014135
     atom    3 type  2   force =    -0.00000023    0.00000001   -0.00003512
     atom    4 type  2   force =     0.00000003    0.00000009   -0.00002688

     Total force =     0.012746     Total SCF correction =     0.000207

     Writing all to output data dir ./TMPDIR/pwscf.save/
 
     init_run     :     14.17s CPU     14.23s WALL (       1 calls)
     electrons    :      4.55s CPU      4.82s WALL (       1 calls)
     forces       :      0.20s CPU      0.20s WALL (       1 calls)

     Called by init_run:
     wfcinit      :      0.21s CPU      0.22s WALL (       1 calls)
     potinit      :     13.77s CPU     13.80s WALL (       1 calls)
     hinit0       :      0.16s CPU      0.18s WALL (       1 calls)

     Called by electrons:
     c_bands      :      3.48s CPU      3.62s WALL (       7 calls)
     sum_band     :      0.58s CPU      0.60s WALL (       7 calls)
     v_of_rho     :     14.15s CPU     14.20s WALL (       8 calls)
     newd         :      0.04s CPU      0.05s WALL (       8 calls)
     mix_rho      :      0.02s CPU      0.02s WALL (       7 calls)
     vdW_kernel   :     13.66s CPU     13.66s WALL (       1 calls)

     Called by c_bands:
     init_us_2    :      0.09s CPU      0.10s WALL (    1184 calls)
     init_us_2:cp :      0.09s CPU      0.09s WALL (    1184 calls)
     cegterg      :      3.32s CPU      3.44s WALL (     518 calls)

     Called by *egterg:
     cdiaghg      :      0.23s CPU      0.24s WALL (    2357 calls)
     h_psi        :      2.84s CPU      2.95s WALL (    2431 calls)
     s_psi        :      0.06s CPU      0.07s WALL (    2431 calls)
     g_psi        :      0.03s CPU      0.03s WALL (    1839 calls)

     Called by h_psi:
     h_psi:calbec :      0.12s CPU      0.12s WALL (    2431 calls)
     vloc_psi     :      2.63s CPU      2.73s WALL (    2431 calls)
     add_vuspsi   :      0.07s CPU      0.07s WALL (    2431 calls)

     General routines
     calbec       :      0.16s CPU      0.16s WALL (    3245 calls)
     fft          :      0.33s CPU      0.36s WALL (     563 calls)
     ffts         :      0.00s CPU      0.00s WALL (      15 calls)
     fftw         :      2.66s CPU      2.76s WALL (   29570 calls)
     interpolate  :      0.00s CPU      0.00s WALL (       8 calls)
 
     Parallel routines
 
     PWSCF        :     19.05s CPU     20.28s WALL

 
   This run was terminated on:  18:24:50  12Mar2024            

=------------------------------------------------------------------------------=
   JOB DONE.
=------------------------------------------------------------------------------=
