[0] MPI startup(): I_MPI_TCP_NETMASK variable has been removed from the product, its value is ignored


     Program PWSCF v.7.2 starts on 12Mar2024 at 18:26: 0 

     This program is part of the open-source Quantum ESPRESSO suite
     for quantum simulation of materials; please cite
         "P. Giannozzi et al., J. Phys.:Condens. Matter 21 395502 (2009);
         "P. Giannozzi et al., J. Phys.:Condens. Matter 29 465901 (2017);
         "P. Giannozzi et al., J. Chem. Phys. 152 154105 (2020);
          URL http://www.quantum-espresso.org", 
     in publications or presentations arising from this work. More details at
     http://www.quantum-espresso.org/quote

     Parallel version (MPI), running on    16 processors

     MPI processes distributed on     1 nodes
     31543 MiB available memory on the printing compute node when the environment starts
 
     Reading input from espresso.pwi
Warning: card &CELL ignored
Warning: card / ignored

     Current dimensions of program PWSCF are:
     Max number of different atomic species (ntypx) = 10
     Max number of k-points (npk) =  40000
     Max angular momentum in pseudopotentials (lmaxx) =  4
     Presently no symmetry can be used with electric field


     IMPORTANT: XC functional enforced from input :
     Exchange-correlation= VDW-DF2-B86R
                           (   1   4  26   0   2   0   0)
     Any further DFT definition will be discarded
     Please, verify this is what you really want

 
     R & G space division:  proc/nbgrp/npool/nimage =      16
     Subspace diagonalization in iterative solution of the eigenvalue problem:
     a serial algorithm will be used

 
     Parallelization info
     --------------------
     sticks:   dense  smooth     PW     G-vecs:    dense   smooth      PW
     Min          67      34     10                 7115     2515     444
     Max          68      36     11                 7126     2519     463
     Sum        1085     551    167               113933    40273    7201
 
     Using Slab Decomposition
 


     bravais-lattice index     =            0
     lattice parameter (alat)  =       5.6973  a.u.
     unit-cell volume          =     642.1518 (a.u.)^3
     number of atoms/cell      =            4
     number of atomic types    =            2
     number of electrons       =         8.00
     number of Kohn-Sham states=            8
     kinetic-energy cutoff     =      60.0000  Ry
     charge density cutoff     =     480.0000  Ry
     scf convergence threshold =      1.0E-06
     mixing beta               =       0.7000
     number of iterations used =            8  plain     mixing
     Exchange-correlation= VDW-DF2-B86R
                           (   1   4  26   0   2   0   0)

     celldm(1)=   5.697334  celldm(2)=   0.000000  celldm(3)=   0.000000
     celldm(4)=   0.000000  celldm(5)=   0.000000  celldm(6)=   0.000000

     crystal axes: (cart. coord. in units of alat)
               a(1) = (   0.999994  -0.003591   0.000000 )  
               a(2) = (   0.503167   0.875437   0.000000 )  
               a(3) = (   0.000000   0.000000   3.958265 )  

     reciprocal axes: (cart. coord. in units 2 pi/alat)
               b(1) = (  0.997946 -0.573581  0.000000 )  
               b(2) = (  0.004094  1.139933  0.000000 )  
               b(3) = (  0.000000  0.000000  0.252636 )  


     PseudoPot. # 1 for B  read from file:
     /home/krojas/QE/pseudo/b_pbe_v1.4.uspp.F.UPF
     MD5 check sum: cc6de2960df11db49a60e589f9ebb39b
     Pseudo is Ultrasoft + core correction, Zval =  3.0
     Generated by new atomic code, or converted to UPF format
     Using radial grid of  781 points,  4 beta functions with: 
                l(1) =   0
                l(2) =   0
                l(3) =   1
                l(4) =   1
     Q(r) pseudized with  8 coefficients,  rinner =    1.100   1.100   1.100


     PseudoPot. # 2 for H  read from file:
     /home/krojas/QE/pseudo/h_pbe_v1.4.uspp.F.UPF
     MD5 check sum: 761ae9a214b05c3daf00ab9f6b793d6f
     Pseudo is Ultrasoft, Zval =  1.0
     Generated by new atomic code, or converted to UPF format
     Using radial grid of  615 points,  2 beta functions with: 
                l(1) =   0
                l(2) =   0
     Q(r) pseudized with  8 coefficients,  rinner =    0.700

     atomic species   valence    mass     pseudopotential
        B              3.00    10.81000     B ( 1.00)
        H              1.00     1.00800     H ( 1.00)

     No symmetry found



   Cartesian axes

     site n.     atom                  positions (alat units)
         1           B   tau(   1) = (   0.0000000   0.0000000   1.9791325  )
         2           B   tau(   2) = (   0.5009657   0.2715580   1.9791325  )
         3           H   tau(   3) = (   0.5020846   0.5735104   2.2965180  )
         4           H   tau(   4) = (   0.5020846   0.5735104   1.6584302  )

     number of k points=    74  Gaussian smearing, width (Ry)=  0.0100
                       cart. coord. in units 2pi/alat
        k(    1) = (   0.0000000   0.0000000   0.0000000), wk =   0.0138889
        k(    2) = (   0.0003412   0.0949944   0.0000000), wk =   0.0277778
        k(    3) = (   0.0006823   0.1899889   0.0000000), wk =   0.0277778
        k(    4) = (   0.0010235   0.2849833   0.0000000), wk =   0.0277778
        k(    5) = (   0.0013646   0.3799777   0.0000000), wk =   0.0277778
        k(    6) = (   0.0017058   0.4749722   0.0000000), wk =   0.0277778
        k(    7) = (  -0.0020470  -0.5699666   0.0000000), wk =   0.0138889
        k(    8) = (   0.0831622  -0.0477984   0.0000000), wk =   0.0277778
        k(    9) = (   0.0835034   0.0471960   0.0000000), wk =   0.0277778
        k(   10) = (   0.0838445   0.1421905   0.0000000), wk =   0.0277778
        k(   11) = (   0.0841857   0.2371849   0.0000000), wk =   0.0277778
        k(   12) = (   0.0845269   0.3321793   0.0000000), wk =   0.0277778
        k(   13) = (   0.0848680   0.4271738   0.0000000), wk =   0.0277778
        k(   14) = (   0.0811152  -0.6177650   0.0000000), wk =   0.0277778
        k(   15) = (   0.0814564  -0.5227706   0.0000000), wk =   0.0277778
        k(   16) = (   0.0817976  -0.4277762   0.0000000), wk =   0.0277778
        k(   17) = (   0.0821387  -0.3327817   0.0000000), wk =   0.0277778
        k(   18) = (   0.0824799  -0.2377873   0.0000000), wk =   0.0277778
        k(   19) = (   0.0828210  -0.1427928   0.0000000), wk =   0.0277778
        k(   20) = (   0.1663244  -0.0955968   0.0000000), wk =   0.0277778
        k(   21) = (   0.1666656  -0.0006024   0.0000000), wk =   0.0277778
        k(   22) = (   0.1670067   0.0943921   0.0000000), wk =   0.0277778
        k(   23) = (   0.1673479   0.1893865   0.0000000), wk =   0.0277778
        k(   24) = (   0.1676891   0.2843809   0.0000000), wk =   0.0277778
        k(   25) = (   0.1680302   0.3793754   0.0000000), wk =   0.0277778
        k(   26) = (   0.1642774  -0.6655634   0.0000000), wk =   0.0277778
        k(   27) = (   0.1646186  -0.5705690   0.0000000), wk =   0.0277778
        k(   28) = (   0.1649598  -0.4755746   0.0000000), wk =   0.0277778
        k(   29) = (   0.1653009  -0.3805801   0.0000000), wk =   0.0277778
        k(   30) = (   0.1656421  -0.2855857   0.0000000), wk =   0.0277778
        k(   31) = (   0.1659833  -0.1905913   0.0000000), wk =   0.0277778
        k(   32) = (   0.2494866  -0.1433952   0.0000000), wk =   0.0277778
        k(   33) = (   0.2498278  -0.0484008   0.0000000), wk =   0.0277778
        k(   34) = (   0.2501689   0.0465936   0.0000000), wk =   0.0277778
        k(   35) = (   0.2505101   0.1415881   0.0000000), wk =   0.0277778
        k(   36) = (   0.2508513   0.2365825   0.0000000), wk =   0.0277778
        k(   37) = (   0.2511924   0.3315769   0.0000000), wk =   0.0277778
        k(   38) = (   0.2474397  -0.7133618   0.0000000), wk =   0.0277778
        k(   39) = (   0.2477808  -0.6183674   0.0000000), wk =   0.0277778
        k(   40) = (   0.2481220  -0.5233730   0.0000000), wk =   0.0277778
        k(   41) = (   0.2484631  -0.4283785   0.0000000), wk =   0.0277778
        k(   42) = (   0.2488043  -0.3333841   0.0000000), wk =   0.0277778
        k(   43) = (   0.2491455  -0.2383897   0.0000000), wk =   0.0277778
        k(   44) = (   0.3326488  -0.1911936   0.0000000), wk =   0.0277778
        k(   45) = (   0.3329900  -0.0961992   0.0000000), wk =   0.0277778
        k(   46) = (   0.3333312  -0.0012048   0.0000000), wk =   0.0277778
        k(   47) = (   0.3336723   0.0937897   0.0000000), wk =   0.0277778
        k(   48) = (   0.3340135   0.1887841   0.0000000), wk =   0.0277778
        k(   49) = (   0.3343546   0.2837785   0.0000000), wk =   0.0277778
        k(   50) = (   0.3306019  -0.7611603   0.0000000), wk =   0.0277778
        k(   51) = (   0.3309430  -0.6661658   0.0000000), wk =   0.0277778
        k(   52) = (   0.3312842  -0.5711714   0.0000000), wk =   0.0277778
        k(   53) = (   0.3316253  -0.4761769   0.0000000), wk =   0.0277778
        k(   54) = (   0.3319665  -0.3811825   0.0000000), wk =   0.0277778
        k(   55) = (   0.3323077  -0.2861881   0.0000000), wk =   0.0277778
        k(   56) = (   0.4158110  -0.2389921   0.0000000), wk =   0.0277778
        k(   57) = (   0.4161522  -0.1439976   0.0000000), wk =   0.0277778
        k(   58) = (   0.4164934  -0.0490032   0.0000000), wk =   0.0277778
        k(   59) = (   0.4168345   0.0459913   0.0000000), wk =   0.0277778
        k(   60) = (   0.4171757   0.1409857   0.0000000), wk =   0.0277778
        k(   61) = (   0.4175169   0.2359801   0.0000000), wk =   0.0277778
        k(   62) = (   0.4137641  -0.8089587   0.0000000), wk =   0.0277778
        k(   63) = (   0.4141052  -0.7139642   0.0000000), wk =   0.0277778
        k(   64) = (   0.4144464  -0.6189698   0.0000000), wk =   0.0277778
        k(   65) = (   0.4147876  -0.5239754   0.0000000), wk =   0.0277778
        k(   66) = (   0.4151287  -0.4289809   0.0000000), wk =   0.0277778
        k(   67) = (   0.4154699  -0.3339865   0.0000000), wk =   0.0277778
        k(   68) = (  -0.4989732   0.2867905   0.0000000), wk =   0.0138889
        k(   69) = (  -0.4986321   0.3817849   0.0000000), wk =   0.0277778
        k(   70) = (  -0.4982909   0.4767793   0.0000000), wk =   0.0277778
        k(   71) = (  -0.4979498   0.5717738   0.0000000), wk =   0.0277778
        k(   72) = (  -0.4976086   0.6667682   0.0000000), wk =   0.0277778
        k(   73) = (  -0.4972674   0.7617626   0.0000000), wk =   0.0277778
        k(   74) = (  -0.5010202  -0.2831762   0.0000000), wk =   0.0138889

     Dense  grid:   113933 G-vectors     FFT dimensions: (  40,  45, 160)

     Smooth grid:    40273 G-vectors     FFT dimensions: (  30,  30, 120)

     Estimated max dynamical RAM per process >      13.53 MB

     Estimated total dynamical RAM >     216.40 MB

     Initial potential from superposition of free atoms

     starting charge       7.9994, renormalised to       8.0000

     negative rho (up, down):  1.273E-05 0.000E+00


     %%%%%%%%%%%%%%%%%%%%%%%%%%%%%%%%%%%%%%%%%%%%%%%%%%%%%%%%%%%%%%%%%%%%%%%%
     %                                                                      %
     % You are using vdW-DF, which was implemented by the Thonhauser group. %
     % Please cite the following two papers that made this development      %
     % possible and the two reviews that describe the various versions:     %
     %                                                                      %
     %   T. Thonhauser et al., PRL 115, 136402 (2015).                      %
     %   T. Thonhauser et al., PRB 76, 125112 (2007).                       %
     %   K. Berland et al., Rep. Prog. Phys. 78, 066501 (2015).             %
     %   D.C. Langreth et al., J. Phys.: Condens. Matter 21, 084203 (2009). %
     %                                                                      %
     % If you are calculating stress with vdW-DF, please also cite:         %
     %                                                                      %
     %   R. Sabatini et al., J. Phys.: Condens. Matter 24, 424209 (2012).   %
     %                                                                      %
     %%%%%%%%%%%%%%%%%%%%%%%%%%%%%%%%%%%%%%%%%%%%%%%%%%%%%%%%%%%%%%%%%%%%%%%%

     %%%%%%%%%%%%%%%%%%%%%%%%%%%%%%%%%%%%%%%%%%%%%%%%%%%%%%%%%%%%%%%%%%%%%%%%
     %                                                                      %
     %  vdW-DF NEWS:                                                        %
     %                                                                      %
     %  * vdW-DF3 is now available. DOI: 10.1021/acs.jctc.0c00471           %
     %    use with input_dft = 'vdW-DF3-opt1' or 'vdW-DF3-opt2'             %
     %                                                                      %
     %  * Unscreened and range-separated hybrid vdW-DF-cx functionals       %
     %    DOI: 10.1063/1.4986522 and 10.1088/1361-648X/ac2ad2               %
     %    use with input_dft = 'vdW-DF-cx0'    and 'vdW-DF-ahcx'            %
     %  * Unscreened and range-separated hybrid vdW-DF2-b86r functionals    %
     %    DOI: 10.1063/1.4986522 and DOI: 10.1103/PhysRevX.12.041003        %
     %    use with input_dft = 'vdW-DF2-br0' and 'vdW-DF2-ahbr'             %
     %                                                                      %
     %%%%%%%%%%%%%%%%%%%%%%%%%%%%%%%%%%%%%%%%%%%%%%%%%%%%%%%%%%%%%%%%%%%%%%%%


 
     Adding external electric field

     Computed dipole along edir(3) : 
        Dipole                0.0000 Ry au,          0.0000 Debye
        Dipole field          0.0000 Ry au, 
 
        Potential amp.       -0.0000 Ry
        Total length         22.5493 bohr
 
     Starting wfcs are   10 randomized atomic wfcs

     total cpu time spent up to now is       14.2 secs

     Self-consistent Calculation

     iteration #  1     ecut=    60.00 Ry     beta= 0.70
     Davidson diagonalization with overlap
     ethr =  1.00E-02,  avg # of iterations =  3.8

     negative rho (up, down):  1.284E-05 0.000E+00
 
     Adding external electric field

     Computed dipole along edir(3) : 
        Dipole               -0.0056 Ry au,         -0.0143 Debye
        Dipole field         -0.0001 Ry au, 
 
        Potential amp.        0.0050 Ry
        Total length         22.5493 bohr
 

     total cpu time spent up to now is       15.0 secs

     total energy              =     -15.04583113 Ry
     estimated scf accuracy    <       0.32949738 Ry

     iteration #  2     ecut=    60.00 Ry     beta= 0.70
     Davidson diagonalization with overlap
     ethr =  4.12E-03,  avg # of iterations =  3.8

     negative rho (up, down):  2.202E-05 0.000E+00
 
     Adding external electric field

     Computed dipole along edir(3) : 
        Dipole                0.0096 Ry au,          0.0244 Debye
        Dipole field          0.0002 Ry au, 
 
        Potential amp.       -0.0085 Ry
        Total length         22.5493 bohr
 

     total cpu time spent up to now is       15.7 secs

     total energy              =     -15.10085566 Ry
     estimated scf accuracy    <       0.01851686 Ry

     iteration #  3     ecut=    60.00 Ry     beta= 0.70
     Davidson diagonalization with overlap
     ethr =  2.31E-04,  avg # of iterations =  5.3

     negative rho (up, down):  3.107E-05 0.000E+00
 
     Adding external electric field

     Computed dipole along edir(3) : 
        Dipole               -0.0192 Ry au,         -0.0487 Debye
        Dipole field         -0.0004 Ry au, 
 
        Potential amp.        0.0169 Ry
        Total length         22.5493 bohr
 

     total cpu time spent up to now is       16.4 secs

     total energy              =     -15.10404972 Ry
     estimated scf accuracy    <       0.00070241 Ry

     iteration #  4     ecut=    60.00 Ry     beta= 0.70
     Davidson diagonalization with overlap
     ethr =  8.78E-06,  avg # of iterations =  5.9

     negative rho (up, down):  3.187E-05 0.000E+00
 
     Adding external electric field

     Computed dipole along edir(3) : 
        Dipole                0.0017 Ry au,          0.0044 Debye
        Dipole field          0.0000 Ry au, 
 
        Potential amp.       -0.0015 Ry
        Total length         22.5493 bohr
 

     total cpu time spent up to now is       17.3 secs

     total energy              =     -15.10410807 Ry
     estimated scf accuracy    <       0.00059419 Ry

     iteration #  5     ecut=    60.00 Ry     beta= 0.70
     Davidson diagonalization with overlap
     ethr =  7.43E-06,  avg # of iterations =  2.8

     negative rho (up, down):  3.354E-05 0.000E+00
 
     Adding external electric field

     Computed dipole along edir(3) : 
        Dipole                0.0004 Ry au,          0.0011 Debye
        Dipole field          0.0000 Ry au, 
 
        Potential amp.       -0.0004 Ry
        Total length         22.5493 bohr
 

     total cpu time spent up to now is       17.9 secs

     total energy              =     -15.10422030 Ry
     estimated scf accuracy    <       0.00000563 Ry

     iteration #  6     ecut=    60.00 Ry     beta= 0.70
     Davidson diagonalization with overlap
     ethr =  7.04E-08,  avg # of iterations =  2.1

     negative rho (up, down):  3.391E-05 0.000E+00
 
     Adding external electric field

     Computed dipole along edir(3) : 
        Dipole               -0.0003 Ry au,         -0.0007 Debye
        Dipole field         -0.0000 Ry au, 
 
        Potential amp.        0.0002 Ry
        Total length         22.5493 bohr
 

     total cpu time spent up to now is       18.5 secs

     End of self-consistent calculation

          k = 0.0000 0.0000 0.0000 (  5017 PWs)   bands (ev):

   -14.5618  -8.8639  -3.1248  -0.6567   0.5726   1.9355   2.9104   5.5808

          k = 0.0003 0.0950 0.0000 (  4979 PWs)   bands (ev):

   -14.4635  -8.7463  -3.5109  -0.9035   0.6965   2.0763   3.0386   5.6914

          k = 0.0007 0.1900 0.0000 (  4988 PWs)   bands (ev):

   -14.1735  -8.3986  -4.4972  -1.4701   1.0826   2.4798   3.4299   3.9637

          k = 0.0010 0.2850 0.0000 (  5020 PWs)   bands (ev):

   -13.7103  -7.8408  -5.7610  -2.0861   1.7321   1.8977   3.3030   4.0572

          k = 0.0014 0.3800 0.0000 (  5038 PWs)   bands (ev):

   -13.1204  -7.1255  -7.0339  -2.5928   0.1791   2.6044   4.2687   4.6411

          k = 0.0017 0.4750 0.0000 (  5038 PWs)   bands (ev):

   -12.5287  -8.0750  -6.3929  -2.9171  -1.1792   3.4874   4.9129   5.5273

          k =-0.0020-0.5700 0.0000 (  5036 PWs)   bands (ev):

   -12.2421  -8.5165  -6.0305  -3.0280  -1.7532   3.8163   5.6247   6.1176

          k = 0.0832-0.0478 0.0000 (  5007 PWs)   bands (ev):

   -14.4636  -8.7633  -3.4018  -1.0435   0.7091   2.0764   3.0523   5.6501

          k = 0.0835 0.0472 0.0000 (  5007 PWs)   bands (ev):

   -14.4636  -8.7633  -3.4019  -1.0434   0.7091   2.0764   3.0523   5.6505

          k = 0.0838 0.1422 0.0000 (  5003 PWs)   bands (ev):

   -14.2697  -8.5323  -4.0911  -1.4482   0.9642   2.3506   3.3138   4.8452

          k = 0.0842 0.2372 0.0000 (  5010 PWs)   bands (ev):

   -13.8930  -8.0825  -5.1858  -2.0869   1.4875   2.6128   3.2072   3.8412

          k = 0.0845 0.3322 0.0000 (  5029 PWs)   bands (ev):

   -13.3637  -7.4472  -6.4178  -2.7074   1.0158   2.2663   3.8491   4.5763

          k = 0.0849 0.4272 0.0000 (  5030 PWs)   bands (ev):

   -12.7585  -7.5616  -6.7131  -3.1641  -0.5096   3.2269   4.9585   5.1314

          k = 0.0811-0.6178 0.0000 (  5055 PWs)   bands (ev):

   -12.2799  -8.3284  -6.1230  -3.4012  -1.5055   4.0288   5.5533   6.2874

          k = 0.0815-0.5228 0.0000 (  5055 PWs)   bands (ev):

   -12.2799  -8.3284  -6.1230  -3.4012  -1.5055   4.0288   5.5534   6.2874

          k = 0.0818-0.4278 0.0000 (  5030 PWs)   bands (ev):

   -12.7584  -7.5616  -6.7131  -3.1641  -0.5096   3.2269   4.9586   5.1314

          k = 0.0821-0.3328 0.0000 (  5029 PWs)   bands (ev):

   -13.3637  -7.4471  -6.4178  -2.7074   1.0158   2.2663   3.8492   4.5762

          k = 0.0825-0.2378 0.0000 (  5010 PWs)   bands (ev):

   -13.8930  -8.0825  -5.1857  -2.0870   1.4875   2.6129   3.2073   3.8413

          k = 0.0828-0.1428 0.0000 (  5003 PWs)   bands (ev):

   -14.2697  -8.5323  -4.0910  -1.4484   0.9642   2.3506   3.3138   4.8450

          k = 0.1663-0.0956 0.0000 (  5007 PWs)   bands (ev):

   -14.1753  -8.4714  -4.1550  -1.9107   1.1242   2.4873   3.4810   5.3110

          k = 0.1667-0.0006 0.0000 (  4991 PWs)   bands (ev):

   -14.2704  -8.5827  -3.8014  -1.8172   0.9950   2.3564   3.3489   5.9674

          k = 0.1670 0.0944 0.0000 (  5007 PWs)   bands (ev):

   -14.1753  -8.4714  -4.1553  -1.9104   1.1242   2.4873   3.4810   5.3102

          k = 0.1673 0.1894 0.0000 (  5031 PWs)   bands (ev):

   -13.8958  -8.1440  -4.9682  -2.3655   1.5164   2.7855   3.7075   3.8807

          k = 0.1677 0.2844 0.0000 (  5037 PWs)   bands (ev):

   -13.4526  -7.6243  -5.9618  -3.0917   1.7693   2.1761   3.7431   4.5498

          k = 0.1680 0.3794 0.0000 (  5046 PWs)   bands (ev):

   -12.8971  -6.9924  -6.9655  -3.7639   0.2905   3.0760   4.6668   5.4254

          k = 0.1643-0.6656 0.0000 (  5071 PWs)   bands (ev):

   -12.3559  -7.8492  -6.3324  -4.1996  -0.8713   4.1095   5.7951   6.1303

          k = 0.1646-0.5706 0.0000 (  5067 PWs)   bands (ev):

   -12.1033  -8.2166  -6.0330  -4.3473  -1.3486   4.7337   6.5121   6.5577

          k = 0.1650-0.4756 0.0000 (  5071 PWs)   bands (ev):

   -12.3559  -7.8492  -6.3324  -4.1996  -0.8713   4.1096   5.7950   6.1303

          k = 0.1653-0.3806 0.0000 (  5048 PWs)   bands (ev):

   -12.8970  -6.9924  -6.9654  -3.7640   0.2906   3.0760   4.6668   5.4254

          k = 0.1656-0.2856 0.0000 (  5037 PWs)   bands (ev):

   -13.4526  -7.6243  -5.9616  -3.0919   1.7694   2.1761   3.7431   4.5498

          k = 0.1660-0.1906 0.0000 (  5031 PWs)   bands (ev):

   -13.8957  -8.1440  -4.9679  -2.3658   1.5165   2.7856   3.7076   3.8809

          k = 0.2495-0.1434 0.0000 (  5031 PWs)   bands (ev):

   -13.7199  -8.0232  -5.2251  -2.7887   1.8194   2.9927   3.9846   4.1930

          k = 0.2498-0.0484 0.0000 (  5026 PWs)   bands (ev):

   -13.8982  -8.2249  -4.6057  -2.8178   1.5563   2.8940   3.9291   5.1283

          k = 0.2502 0.0466 0.0000 (  5026 PWs)   bands (ev):

   -13.8982  -8.2249  -4.6059  -2.8175   1.5563   2.8940   3.9291   5.1284

          k = 0.2505 0.1416 0.0000 (  5031 PWs)   bands (ev):

   -13.7199  -8.0233  -5.2255  -2.7881   1.8193   2.9925   3.9843   4.1928

          k = 0.2509 0.2366 0.0000 (  5038 PWs)   bands (ev):

   -13.3784  -7.6377  -5.9886  -3.2562   2.1721   2.3445   3.9608   4.7142

          k = 0.2512 0.3316 0.0000 (  5053 PWs)   bands (ev):

   -12.9123  -7.1134  -6.7186  -4.0808   0.9514   3.1241   4.6951   5.5207

          k = 0.2474-0.7134 0.0000 (  5056 PWs)   bands (ev):

   -12.4081  -7.3567  -6.5486  -4.8484  -0.1011   4.1067   5.5584   6.4799

          k = 0.2478-0.6184 0.0000 (  5062 PWs)   bands (ev):

   -12.0428  -7.7813  -6.1424  -5.2820  -0.7556   5.0607   5.9176   6.9756

          k = 0.2481-0.5234 0.0000 (  5062 PWs)   bands (ev):

   -12.0428  -7.7813  -6.1423  -5.2821  -0.7556   5.0608   5.9175   6.9753

          k = 0.2485-0.4284 0.0000 (  5056 PWs)   bands (ev):

   -12.4080  -7.3566  -6.5486  -4.8486  -0.1010   4.1068   5.5584   6.4800

          k = 0.2488-0.3334 0.0000 (  5053 PWs)   bands (ev):

   -12.9122  -7.1134  -6.7184  -4.0812   0.9517   3.1242   4.6952   5.5208

          k = 0.2491-0.2384 0.0000 (  5038 PWs)   bands (ev):

   -13.3783  -7.6377  -5.9883  -3.2567   2.1724   2.3446   3.9609   4.7146

          k = 0.3326-0.1912 0.0000 (  5036 PWs)   bands (ev):

   -13.1534  -7.4948  -6.3900  -3.4446   2.1778   2.7801   4.4022   4.7475

          k = 0.3330-0.0962 0.0000 (  5043 PWs)   bands (ev):

   -13.3839  -7.7391  -5.6938  -3.6216   2.3890   3.1606   4.0599   4.7882

          k = 0.3333-0.0012 0.0000 (  5043 PWs)   bands (ev):

   -13.4640  -7.8242  -5.2591  -3.9297   2.2563   3.5403   4.1763   4.6542

          k = 0.3337 0.0938 0.0000 (  5043 PWs)   bands (ev):

   -13.3839  -7.7391  -5.6942  -3.6210   2.3889   3.1603   4.0599   4.7880

          k = 0.3340 0.1888 0.0000 (  5036 PWs)   bands (ev):

   -13.1535  -7.4948  -6.3904  -3.4440   2.1774   2.7800   4.4020   4.7475

          k = 0.3344 0.2838 0.0000 (  5056 PWs)   bands (ev):

   -12.8060  -7.1286  -6.9701  -3.9014   1.2392   3.4165   5.0482   5.1233

          k = 0.3306-0.7612 0.0000 (  5051 PWs)   bands (ev):

   -12.4100  -7.3207  -6.7115  -4.7907   0.5009   4.2666   5.7247   6.3058

          k = 0.3309-0.6662 0.0000 (  5056 PWs)   bands (ev):

   -12.0798  -7.3931  -6.3631  -5.6831   0.0179   5.1604   5.5033   7.1299

          k = 0.3313-0.5712 0.0000 (  5049 PWs)   bands (ev):

   -11.9485  -7.3238  -6.2236  -6.1133  -0.1537   5.2407   5.5888   7.5041

          k = 0.3316-0.4762 0.0000 (  5056 PWs)   bands (ev):

   -12.0798  -7.3929  -6.3631  -5.6834   0.0181   5.1606   5.5031   7.1301

          k = 0.3320-0.3812 0.0000 (  5051 PWs)   bands (ev):

   -12.4099  -7.3205  -6.7115  -4.7912   0.5012   4.2667   5.7247   6.3048

          k = 0.3323-0.2862 0.0000 (  5056 PWs)   bands (ev):

   -12.8059  -7.1285  -6.9697  -3.9020   1.2396   3.4167   5.0483   5.1224

          k = 0.4158-0.2390 0.0000 (  5035 PWs)   bands (ev):

   -12.6105  -7.3545  -7.0301  -3.8365   1.1992   3.9499   4.5534   5.6280

          k = 0.4162-0.1440 0.0000 (  5059 PWs)   bands (ev):

   -12.8142  -7.2236  -6.7980  -4.1134   1.9224   3.4656   4.9616   5.1755

          k = 0.4165-0.0490 0.0000 (  5060 PWs)   bands (ev):

   -12.9312  -7.3338  -6.1145  -4.7711   2.7396   3.2091   4.3801   5.6435

          k = 0.4168 0.0460 0.0000 (  5060 PWs)   bands (ev):

   -12.9312  -7.3338  -6.1149  -4.7707   2.7393   3.2091   4.3802   5.6434

          k = 0.4172 0.1410 0.0000 (  5059 PWs)   bands (ev):

   -12.8143  -7.2236  -6.7984  -4.1128   1.9219   3.4655   4.9616   5.1763

          k = 0.4175 0.2360 0.0000 (  5035 PWs)   bands (ev):

   -12.6106  -7.3548  -7.0301  -3.8358   1.1987   3.9497   4.5542   5.6279

          k = 0.4138-0.8090 0.0000 (  5051 PWs)   bands (ev):

   -12.3805  -7.6097  -6.8060  -4.2529   0.7676   4.5835   5.0323   6.3421

          k = 0.4141-0.7140 0.0000 (  5056 PWs)   bands (ev):

   -12.1965  -7.4822  -6.6141  -5.1410   0.6457   5.1289   5.7528   6.2751

          k = 0.4144-0.6190 0.0000 (  5053 PWs)   bands (ev):

   -12.1023  -6.9684  -6.5058  -6.1199   0.7033   4.9393   5.2357   7.2678

          k = 0.4148-0.5240 0.0000 (  5053 PWs)   bands (ev):

   -12.1023  -6.9680  -6.5058  -6.1204   0.7034   4.9391   5.2358   7.2681

          k = 0.4151-0.4290 0.0000 (  5056 PWs)   bands (ev):

   -12.1964  -7.4819  -6.6140  -5.1416   0.6461   5.1291   5.7525   6.2741

          k = 0.4155-0.3340 0.0000 (  5051 PWs)   bands (ev):

   -12.3804  -7.6094  -6.8060  -4.2535   0.7681   4.5836   5.0315   6.3422

          k =-0.4990 0.2868 0.0000 (  5038 PWs)   bands (ev):

   -12.3626  -7.7523  -6.8363  -3.9665   0.8209   4.4680   4.8646   6.2574

          k =-0.4986 0.3818 0.0000 (  5049 PWs)   bands (ev):

   -12.3854  -7.5532  -6.8479  -4.3209   1.0024   4.6387   5.0141   6.1725

          k =-0.4983 0.4768 0.0000 (  5054 PWs)   bands (ev):

   -12.4293  -7.0038  -6.8705  -5.1422   1.4520   4.3451   5.1627   6.3542

          k =-0.4979 0.5718 0.0000 (  5075 PWs)   bands (ev):

   -12.4505  -6.8824  -6.3999  -5.8662   1.7573   4.2334   4.6274   6.6994

          k =-0.4976 0.6668 0.0000 (  5054 PWs)   bands (ev):

   -12.4294  -7.0042  -6.8705  -5.1416   1.4516   4.3450   5.1629   6.3551

          k =-0.4973 0.7618 0.0000 (  5049 PWs)   bands (ev):

   -12.3855  -7.5535  -6.8479  -4.3202   1.0019   4.6386   5.0149   6.1726

          k =-0.5010-0.2832 0.0000 (  5038 PWs)   bands (ev):

   -12.3627  -7.7526  -6.8363  -3.9658   0.8204   4.4688   4.8644   6.2572

     the Fermi energy is    -1.2564 ev

!    total energy              =     -15.10422173 Ry
     estimated scf accuracy    <       0.00000034 Ry
     smearing contrib. (-TS)   =      -0.00015356 Ry
     internal energy E=F+TS    =     -15.10406817 Ry

     The total energy is F=E-TS. E is the sum of the following terms:
     one-electron contribution =     -65.70706812 Ry
     hartree contribution      =      34.41186478 Ry
     xc contribution           =      -7.34290287 Ry
     ewald contribution        =      23.53403803 Ry
     electric field correction =       0.00000000 Ry

     convergence has been achieved in   6 iterations

     negative rho (up, down):  3.391E-05 0.000E+00

     Forces acting on atoms (cartesian axes, Ry/au):

     atom    1 type  1   force =    -0.00001690    0.00520913   -0.00221382
     atom    2 type  1   force =     0.00002109   -0.00518480   -0.00221370
     atom    3 type  2   force =    -0.00000189   -0.00001220    0.00641783
     atom    4 type  2   force =    -0.00000230   -0.00001213   -0.00199030
     The non-local contrib.  to forces
     atom    1 type  1   force =    -0.00129785   -0.35090703   -0.00241301
     atom    2 type  1   force =     0.00131802    0.35094905   -0.00241207
     atom    3 type  2   force =    -0.00000749    0.00000452   -0.11535662
     atom    4 type  2   force =    -0.00000765    0.00000422    0.11383963
     The ionic contribution  to forces
     atom    1 type  1   force =     0.00246890    0.70483078   -0.00119426
     atom    2 type  1   force =    -0.00256546   -0.70474582   -0.00119282
     atom    3 type  2   force =     0.00004882   -0.00004318    2.58038563
     atom    4 type  2   force =     0.00004773   -0.00004178   -2.57799856
     The local contribution  to forces
     atom    1 type  1   force =    -0.00121884   -0.35649115    0.00168961
     atom    2 type  1   force =     0.00130005    0.35639027    0.00168794
     atom    3 type  2   force =    -0.00004292    0.00002538   -2.45856985
     atom    4 type  2   force =    -0.00004225    0.00002455    2.46230116
     The core correction contribution to forces
     atom    1 type  1   force =     0.00002851    0.00757729    0.00011397
     atom    2 type  1   force =    -0.00002856   -0.00757935    0.00011378
     atom    3 type  2   force =     0.00000000    0.00000000    0.00000000
     atom    4 type  2   force =     0.00000000    0.00000000    0.00000000
     The Hubbard contrib.    to forces
     atom    1 type  1   force =     0.00000000    0.00000000    0.00000000
     atom    2 type  1   force =     0.00000000    0.00000000    0.00000000
     atom    3 type  2   force =     0.00000000    0.00000000    0.00000000
     atom    4 type  2   force =     0.00000000    0.00000000    0.00000000
     The SCF correction term to forces
     atom    1 type  1   force =     0.00000234    0.00019902   -0.00042116
     atom    2 type  1   force =    -0.00000299   -0.00019917   -0.00042157
     atom    3 type  2   force =    -0.00000035    0.00000087   -0.00003217
     atom    4 type  2   force =    -0.00000019    0.00000066   -0.00012336

     Total force =     0.010439     Total SCF correction =     0.000671

     Writing all to output data dir ./TMPDIR/pwscf.save/
 
     init_run     :     14.12s CPU     14.14s WALL (       1 calls)
     electrons    :      4.11s CPU      4.30s WALL (       1 calls)
     forces       :      0.19s CPU      0.20s WALL (       1 calls)

     Called by init_run:
     wfcinit      :      0.20s CPU      0.21s WALL (       1 calls)
     potinit      :     13.75s CPU     13.77s WALL (       1 calls)
     hinit0       :      0.14s CPU      0.14s WALL (       1 calls)

     Called by electrons:
     c_bands      :      3.23s CPU      3.33s WALL (       6 calls)
     sum_band     :      0.49s CPU      0.51s WALL (       6 calls)
     v_of_rho     :     14.03s CPU     14.08s WALL (       7 calls)
     newd         :      0.04s CPU      0.05s WALL (       7 calls)
     mix_rho      :      0.02s CPU      0.02s WALL (       6 calls)
     vdW_kernel   :     13.65s CPU     13.65s WALL (       1 calls)

     Called by c_bands:
     init_us_2    :      0.08s CPU      0.08s WALL (    1036 calls)
     init_us_2:cp :      0.08s CPU      0.08s WALL (    1036 calls)
     cegterg      :      3.09s CPU      3.18s WALL (     444 calls)

     Called by *egterg:
     cdiaghg      :      0.22s CPU      0.23s WALL (    2208 calls)
     h_psi        :      2.63s CPU      2.71s WALL (    2282 calls)
     s_psi        :      0.06s CPU      0.06s WALL (    2282 calls)
     g_psi        :      0.03s CPU      0.03s WALL (    1764 calls)

     Called by h_psi:
     h_psi:calbec :      0.11s CPU      0.11s WALL (    2282 calls)
     vloc_psi     :      2.44s CPU      2.51s WALL (    2282 calls)
     add_vuspsi   :      0.06s CPU      0.06s WALL (    2282 calls)

     General routines
     calbec       :      0.14s CPU      0.15s WALL (    3022 calls)
     fft          :      0.25s CPU      0.26s WALL (     500 calls)
     ffts         :      0.00s CPU      0.00s WALL (      13 calls)
     fftw         :      2.45s CPU      2.52s WALL (   26546 calls)
     interpolate  :      0.00s CPU      0.00s WALL (       7 calls)
 
     Parallel routines
 
     PWSCF        :     18.56s CPU     19.46s WALL

 
   This run was terminated on:  18:26:19  12Mar2024            

=------------------------------------------------------------------------------=
   JOB DONE.
=------------------------------------------------------------------------------=
