[0] MPI startup(): I_MPI_TCP_NETMASK variable has been removed from the product, its value is ignored


     Program PWSCF v.7.2 starts on 12Mar2024 at 17:30: 0 

     This program is part of the open-source Quantum ESPRESSO suite
     for quantum simulation of materials; please cite
         "P. Giannozzi et al., J. Phys.:Condens. Matter 21 395502 (2009);
         "P. Giannozzi et al., J. Phys.:Condens. Matter 29 465901 (2017);
         "P. Giannozzi et al., J. Chem. Phys. 152 154105 (2020);
          URL http://www.quantum-espresso.org", 
     in publications or presentations arising from this work. More details at
     http://www.quantum-espresso.org/quote

     Parallel version (MPI), running on    16 processors

     MPI processes distributed on     1 nodes
     31558 MiB available memory on the printing compute node when the environment starts
 
     Reading input from espresso.pwi
Warning: card &CELL ignored
Warning: card / ignored

     Current dimensions of program PWSCF are:
     Max number of different atomic species (ntypx) = 10
     Max number of k-points (npk) =  40000
     Max angular momentum in pseudopotentials (lmaxx) =  4
     Message from routine setup:
     using ibrav=0 with symmetry is DISCOURAGED, use correct ibrav instead
 
     R & G space division:  proc/nbgrp/npool/nimage =      16
     Subspace diagonalization in iterative solution of the eigenvalue problem:
     a serial algorithm will be used

 
     Parallelization info
     --------------------
     sticks:   dense  smooth     PW     G-vecs:    dense   smooth      PW
     Min          67      34     10                 7115     2515     444
     Max          68      36     11                 7126     2519     463
     Sum        1085     551    167               113933    40273    7201
 
     Using Slab Decomposition
 


     bravais-lattice index     =            0
     lattice parameter (alat)  =       5.6973  a.u.
     unit-cell volume          =     642.1518 (a.u.)^3
     number of atoms/cell      =            4
     number of atomic types    =            2
     number of electrons       =         8.00
     number of Kohn-Sham states=            8
     kinetic-energy cutoff     =      60.0000  Ry
     charge density cutoff     =     480.0000  Ry
     scf convergence threshold =      1.0E-06
     mixing beta               =       0.7000
     number of iterations used =            8  plain     mixing
     Exchange-correlation=  SLA  PW   PBX  PBC
                           (   1   4   3   4   0   0   0)

     celldm(1)=   5.697334  celldm(2)=   0.000000  celldm(3)=   0.000000
     celldm(4)=   0.000000  celldm(5)=   0.000000  celldm(6)=   0.000000

     crystal axes: (cart. coord. in units of alat)
               a(1) = (   0.999994  -0.003591   0.000000 )  
               a(2) = (   0.503167   0.875437   0.000000 )  
               a(3) = (   0.000000   0.000000   3.958265 )  

     reciprocal axes: (cart. coord. in units 2 pi/alat)
               b(1) = (  0.997946 -0.573581  0.000000 )  
               b(2) = (  0.004094  1.139933  0.000000 )  
               b(3) = (  0.000000  0.000000  0.252636 )  


     PseudoPot. # 1 for B  read from file:
     /home/krojas/QE/pseudo/b_pbe_v1.4.uspp.F.UPF
     MD5 check sum: cc6de2960df11db49a60e589f9ebb39b
     Pseudo is Ultrasoft + core correction, Zval =  3.0
     Generated by new atomic code, or converted to UPF format
     Using radial grid of  781 points,  4 beta functions with: 
                l(1) =   0
                l(2) =   0
                l(3) =   1
                l(4) =   1
     Q(r) pseudized with  8 coefficients,  rinner =    1.100   1.100   1.100


     PseudoPot. # 2 for H  read from file:
     /home/krojas/QE/pseudo/h_pbe_v1.4.uspp.F.UPF
     MD5 check sum: 761ae9a214b05c3daf00ab9f6b793d6f
     Pseudo is Ultrasoft, Zval =  1.0
     Generated by new atomic code, or converted to UPF format
     Using radial grid of  615 points,  2 beta functions with: 
                l(1) =   0
                l(2) =   0
     Q(r) pseudized with  8 coefficients,  rinner =    0.700

     atomic species   valence    mass     pseudopotential
        B              3.00    10.81000     B ( 1.00)
        H              1.00     1.00800     H ( 1.00)

      2 Sym. Ops. (no inversion) found



   Cartesian axes

     site n.     atom                  positions (alat units)
         1           B   tau(   1) = (   0.0000000   0.0000000   1.9791325  )
         2           B   tau(   2) = (   0.5009657   0.2748749   1.9791325  )
         3           H   tau(   3) = (   0.5020846   0.5735104   2.2998349  )
         4           H   tau(   4) = (   0.5020846   0.5735104   1.6584302  )

     number of k points=    74  Gaussian smearing, width (Ry)=  0.0100
                       cart. coord. in units 2pi/alat
        k(    1) = (   0.0000000   0.0000000   0.0000000), wk =   0.0138889
        k(    2) = (   0.0003412   0.0949944   0.0000000), wk =   0.0277778
        k(    3) = (   0.0006823   0.1899889   0.0000000), wk =   0.0277778
        k(    4) = (   0.0010235   0.2849833   0.0000000), wk =   0.0277778
        k(    5) = (   0.0013646   0.3799777   0.0000000), wk =   0.0277778
        k(    6) = (   0.0017058   0.4749722   0.0000000), wk =   0.0277778
        k(    7) = (  -0.0020470  -0.5699666   0.0000000), wk =   0.0138889
        k(    8) = (   0.0831622  -0.0477984   0.0000000), wk =   0.0277778
        k(    9) = (   0.0835034   0.0471960   0.0000000), wk =   0.0277778
        k(   10) = (   0.0838445   0.1421905   0.0000000), wk =   0.0277778
        k(   11) = (   0.0841857   0.2371849   0.0000000), wk =   0.0277778
        k(   12) = (   0.0845269   0.3321793   0.0000000), wk =   0.0277778
        k(   13) = (   0.0848680   0.4271738   0.0000000), wk =   0.0277778
        k(   14) = (   0.0811152  -0.6177650   0.0000000), wk =   0.0277778
        k(   15) = (   0.0814564  -0.5227706   0.0000000), wk =   0.0277778
        k(   16) = (   0.0817976  -0.4277762   0.0000000), wk =   0.0277778
        k(   17) = (   0.0821387  -0.3327817   0.0000000), wk =   0.0277778
        k(   18) = (   0.0824799  -0.2377873   0.0000000), wk =   0.0277778
        k(   19) = (   0.0828210  -0.1427928   0.0000000), wk =   0.0277778
        k(   20) = (   0.1663244  -0.0955968   0.0000000), wk =   0.0277778
        k(   21) = (   0.1666656  -0.0006024   0.0000000), wk =   0.0277778
        k(   22) = (   0.1670067   0.0943921   0.0000000), wk =   0.0277778
        k(   23) = (   0.1673479   0.1893865   0.0000000), wk =   0.0277778
        k(   24) = (   0.1676891   0.2843809   0.0000000), wk =   0.0277778
        k(   25) = (   0.1680302   0.3793754   0.0000000), wk =   0.0277778
        k(   26) = (   0.1642774  -0.6655634   0.0000000), wk =   0.0277778
        k(   27) = (   0.1646186  -0.5705690   0.0000000), wk =   0.0277778
        k(   28) = (   0.1649598  -0.4755746   0.0000000), wk =   0.0277778
        k(   29) = (   0.1653009  -0.3805801   0.0000000), wk =   0.0277778
        k(   30) = (   0.1656421  -0.2855857   0.0000000), wk =   0.0277778
        k(   31) = (   0.1659833  -0.1905913   0.0000000), wk =   0.0277778
        k(   32) = (   0.2494866  -0.1433952   0.0000000), wk =   0.0277778
        k(   33) = (   0.2498278  -0.0484008   0.0000000), wk =   0.0277778
        k(   34) = (   0.2501689   0.0465936   0.0000000), wk =   0.0277778
        k(   35) = (   0.2505101   0.1415881   0.0000000), wk =   0.0277778
        k(   36) = (   0.2508513   0.2365825   0.0000000), wk =   0.0277778
        k(   37) = (   0.2511924   0.3315769   0.0000000), wk =   0.0277778
        k(   38) = (   0.2474397  -0.7133618   0.0000000), wk =   0.0277778
        k(   39) = (   0.2477808  -0.6183674   0.0000000), wk =   0.0277778
        k(   40) = (   0.2481220  -0.5233730   0.0000000), wk =   0.0277778
        k(   41) = (   0.2484631  -0.4283785   0.0000000), wk =   0.0277778
        k(   42) = (   0.2488043  -0.3333841   0.0000000), wk =   0.0277778
        k(   43) = (   0.2491455  -0.2383897   0.0000000), wk =   0.0277778
        k(   44) = (   0.3326488  -0.1911936   0.0000000), wk =   0.0277778
        k(   45) = (   0.3329900  -0.0961992   0.0000000), wk =   0.0277778
        k(   46) = (   0.3333312  -0.0012048   0.0000000), wk =   0.0277778
        k(   47) = (   0.3336723   0.0937897   0.0000000), wk =   0.0277778
        k(   48) = (   0.3340135   0.1887841   0.0000000), wk =   0.0277778
        k(   49) = (   0.3343546   0.2837785   0.0000000), wk =   0.0277778
        k(   50) = (   0.3306019  -0.7611603   0.0000000), wk =   0.0277778
        k(   51) = (   0.3309430  -0.6661658   0.0000000), wk =   0.0277778
        k(   52) = (   0.3312842  -0.5711714   0.0000000), wk =   0.0277778
        k(   53) = (   0.3316253  -0.4761769   0.0000000), wk =   0.0277778
        k(   54) = (   0.3319665  -0.3811825   0.0000000), wk =   0.0277778
        k(   55) = (   0.3323077  -0.2861881   0.0000000), wk =   0.0277778
        k(   56) = (   0.4158110  -0.2389921   0.0000000), wk =   0.0277778
        k(   57) = (   0.4161522  -0.1439976   0.0000000), wk =   0.0277778
        k(   58) = (   0.4164934  -0.0490032   0.0000000), wk =   0.0277778
        k(   59) = (   0.4168345   0.0459913   0.0000000), wk =   0.0277778
        k(   60) = (   0.4171757   0.1409857   0.0000000), wk =   0.0277778
        k(   61) = (   0.4175169   0.2359801   0.0000000), wk =   0.0277778
        k(   62) = (   0.4137641  -0.8089587   0.0000000), wk =   0.0277778
        k(   63) = (   0.4141052  -0.7139642   0.0000000), wk =   0.0277778
        k(   64) = (   0.4144464  -0.6189698   0.0000000), wk =   0.0277778
        k(   65) = (   0.4147876  -0.5239754   0.0000000), wk =   0.0277778
        k(   66) = (   0.4151287  -0.4289809   0.0000000), wk =   0.0277778
        k(   67) = (   0.4154699  -0.3339865   0.0000000), wk =   0.0277778
        k(   68) = (  -0.4989732   0.2867905   0.0000000), wk =   0.0138889
        k(   69) = (  -0.4986321   0.3817849   0.0000000), wk =   0.0277778
        k(   70) = (  -0.4982909   0.4767793   0.0000000), wk =   0.0277778
        k(   71) = (  -0.4979498   0.5717738   0.0000000), wk =   0.0277778
        k(   72) = (  -0.4976086   0.6667682   0.0000000), wk =   0.0277778
        k(   73) = (  -0.4972674   0.7617626   0.0000000), wk =   0.0277778
        k(   74) = (  -0.5010202  -0.2831762   0.0000000), wk =   0.0138889

     Dense  grid:   113933 G-vectors     FFT dimensions: (  40,  45, 160)

     Smooth grid:    40273 G-vectors     FFT dimensions: (  30,  30, 120)

     Estimated max dynamical RAM per process >      13.53 MB

     Estimated total dynamical RAM >     216.40 MB

     Initial potential from superposition of free atoms

     starting charge       7.9994, renormalised to       8.0000

     negative rho (up, down):  1.259E-05 0.000E+00
     Starting wfcs are   10 randomized atomic wfcs

     total cpu time spent up to now is        0.5 secs

     Self-consistent Calculation

     iteration #  1     ecut=    60.00 Ry     beta= 0.70
     Davidson diagonalization with overlap
     ethr =  1.00E-02,  avg # of iterations =  3.8

     negative rho (up, down):  1.230E-05 0.000E+00

     total cpu time spent up to now is        1.3 secs

     total energy              =     -15.01239504 Ry
     estimated scf accuracy    <       0.32574999 Ry

     iteration #  2     ecut=    60.00 Ry     beta= 0.70
     Davidson diagonalization with overlap
     ethr =  4.07E-03,  avg # of iterations =  3.4

     negative rho (up, down):  2.171E-05 0.000E+00

     total cpu time spent up to now is        2.1 secs

     total energy              =     -15.06600782 Ry
     estimated scf accuracy    <       0.01766182 Ry

     iteration #  3     ecut=    60.00 Ry     beta= 0.70
     Davidson diagonalization with overlap
     ethr =  2.21E-04,  avg # of iterations =  5.3

     negative rho (up, down):  3.153E-05 0.000E+00

     total cpu time spent up to now is        2.8 secs

     total energy              =     -15.06899792 Ry
     estimated scf accuracy    <       0.00052650 Ry

     iteration #  4     ecut=    60.00 Ry     beta= 0.70
     Davidson diagonalization with overlap
     ethr =  6.58E-06,  avg # of iterations =  5.9

     negative rho (up, down):  3.376E-05 0.000E+00

     total cpu time spent up to now is        3.6 secs

     total energy              =     -15.06907929 Ry
     estimated scf accuracy    <       0.00000504 Ry

     iteration #  5     ecut=    60.00 Ry     beta= 0.70
     Davidson diagonalization with overlap
     ethr =  6.30E-08,  avg # of iterations =  3.0

     negative rho (up, down):  3.440E-05 0.000E+00

     total cpu time spent up to now is        4.2 secs

     End of self-consistent calculation

          k = 0.0000 0.0000 0.0000 (  5017 PWs)   bands (ev):

   -14.4784  -8.7664  -3.0093  -0.4288   0.9675   2.3852   3.0007   5.7727

          k = 0.0003 0.0950 0.0000 (  4979 PWs)   bands (ev):

   -14.3801  -8.6490  -3.3963  -0.6887   1.0905   2.5265   3.1271   5.8836

          k = 0.0007 0.1900 0.0000 (  4988 PWs)   bands (ev):

   -14.0902  -8.3022  -4.3843  -1.2786   1.4719   2.9258   3.5136   4.0594

          k = 0.0010 0.2850 0.0000 (  5020 PWs)   bands (ev):

   -13.6272  -7.7457  -5.6497  -1.9130   2.0125   2.1096   3.7329   4.1341

          k = 0.0014 0.3800 0.0000 (  5038 PWs)   bands (ev):

   -13.0383  -7.0313  -6.9247  -2.4314   0.2836   2.9429   4.7143   4.7477

          k = 0.0017 0.4750 0.0000 (  5038 PWs)   bands (ev):

   -12.4486  -7.9635  -6.3036  -2.7620  -1.0728   3.7002   5.1603   5.9754

          k =-0.0020-0.5700 0.0000 (  5036 PWs)   bands (ev):

   -12.1636  -8.4038  -5.9437  -2.8749  -1.6447   3.9295   5.9324   6.5391

          k = 0.0832-0.0478 0.0000 (  5007 PWs)   bands (ev):

   -14.3800  -8.6662  -3.2881  -0.8281   1.1039   2.5268   3.1417   5.8111

          k = 0.0835 0.0472 0.0000 (  5007 PWs)   bands (ev):

   -14.3800  -8.6662  -3.2882  -0.8279   1.1039   2.5269   3.1418   5.8119

          k = 0.0838 0.1422 0.0000 (  5003 PWs)   bands (ev):

   -14.1861  -8.4357  -3.9780  -1.2520   1.3565   2.8010   3.4000   4.9349

          k = 0.0842 0.2372 0.0000 (  5010 PWs)   bands (ev):

   -13.8096  -7.9870  -5.0737  -1.9125   1.8730   2.8343   3.5295   3.9224

          k = 0.0845 0.3322 0.0000 (  5029 PWs)   bands (ev):

   -13.2808  -7.3535  -6.3067  -2.5486   1.1222   2.6339   4.2903   4.6547

          k = 0.0849 0.4272 0.0000 (  5030 PWs)   bands (ev):

   -12.6769  -7.4500  -6.6226  -3.0144  -0.4046   3.5404   5.2734   5.4049

          k = 0.0811-0.6178 0.0000 (  5055 PWs)   bands (ev):

   -12.2006  -8.2154  -6.0359  -3.2557  -1.3979   4.2033   5.8447   6.7276

          k = 0.0815-0.5228 0.0000 (  5055 PWs)   bands (ev):

   -12.2006  -8.2154  -6.0359  -3.2557  -1.3979   4.2033   5.8448   7.0428

          k = 0.0818-0.4278 0.0000 (  5030 PWs)   bands (ev):

   -12.6769  -7.4500  -6.6226  -3.0145  -0.4046   3.5404   5.2734   5.4050

          k = 0.0821-0.3328 0.0000 (  5029 PWs)   bands (ev):

   -13.2808  -7.3535  -6.3066  -2.5487   1.1223   2.6339   4.2903   4.6546

          k = 0.0825-0.2378 0.0000 (  5010 PWs)   bands (ev):

   -13.8095  -7.9870  -5.0736  -1.9128   1.8730   2.8344   3.5296   3.9223

          k = 0.0828-0.1428 0.0000 (  5003 PWs)   bands (ev):

   -14.1861  -8.4357  -3.9777  -1.2523   1.3565   2.8010   3.4000   4.9351

          k = 0.1663-0.0956 0.0000 (  5007 PWs)   bands (ev):

   -14.0911  -8.3756  -4.0440  -1.7194   1.5178   2.9390   3.5678   5.3994

          k = 0.1667-0.0006 0.0000 (  4991 PWs)   bands (ev):

   -14.1862  -8.4867  -3.6922  -1.6179   1.3900   2.8085   3.4374   6.1503

          k = 0.1670 0.0944 0.0000 (  5007 PWs)   bands (ev):

   -14.0911  -8.3756  -4.0444  -1.7188   1.5178   2.9389   3.5678   5.3988

          k = 0.1673 0.1894 0.0000 (  5031 PWs)   bands (ev):

   -13.8116  -8.0491  -4.8562  -2.1928   1.9056   3.1716   3.8654   3.9633

          k = 0.1677 0.2844 0.0000 (  5037 PWs)   bands (ev):

   -13.3687  -7.5310  -5.8497  -2.9385   1.8867   2.5559   4.1716   4.6293

          k = 0.1680 0.3794 0.0000 (  5046 PWs)   bands (ev):

   -12.8140  -6.8804  -6.8739  -3.6241   0.3960   3.4343   5.1082   5.5080

          k = 0.1643-0.6656 0.0000 (  5071 PWs)   bands (ev):

   -12.2746  -7.7349  -6.2450  -4.0670  -0.7654   4.4046   6.2232   6.3023

          k = 0.1646-0.5706 0.0000 (  5067 PWs)   bands (ev):

   -12.0234  -8.1011  -5.9477  -4.2169  -1.2412   4.9296   6.9306   7.0805

          k = 0.1650-0.4756 0.0000 (  5071 PWs)   bands (ev):

   -12.2746  -7.7349  -6.2450  -4.0671  -0.7653   4.4046   6.2231   6.3023

          k = 0.1653-0.3806 0.0000 (  5048 PWs)   bands (ev):

   -12.8140  -6.8804  -6.8738  -3.6243   0.3963   3.4343   5.1083   5.5082

          k = 0.1656-0.2856 0.0000 (  5037 PWs)   bands (ev):

   -13.3687  -7.5310  -5.8494  -2.9389   1.8870   2.5559   4.1717   4.6293

          k = 0.1660-0.1906 0.0000 (  5031 PWs)   bands (ev):

   -13.8116  -8.0491  -4.8558  -2.1935   1.9057   3.1718   3.8657   3.9633

          k = 0.2495-0.1434 0.0000 (  5031 PWs)   bands (ev):

   -13.6347  -7.9298  -5.1151  -2.6192   2.2088   3.3584   4.1664   4.2748

          k = 0.2498-0.0484 0.0000 (  5026 PWs)   bands (ev):

   -13.8130  -8.1308  -4.5001  -2.6395   1.9494   3.3472   4.0146   5.2116

          k = 0.2502 0.0466 0.0000 (  5026 PWs)   bands (ev):

   -13.8130  -8.1308  -4.5004  -2.6391   1.9494   3.3472   4.0145   5.2110

          k = 0.2505 0.1416 0.0000 (  5031 PWs)   bands (ev):

   -13.6347  -7.9298  -5.1158  -2.6183   2.2088   3.3582   4.1659   4.2748

          k = 0.2509 0.2366 0.0000 (  5038 PWs)   bands (ev):

   -13.2933  -7.5456  -5.8775  -3.1020   2.3099   2.7260   4.3712   4.7940

          k = 0.2512 0.3316 0.0000 (  5053 PWs)   bands (ev):

   -12.8277  -7.0233  -6.6061  -3.9437   1.0632   3.4924   5.1278   5.6017

          k = 0.2474-0.7134 0.0000 (  5056 PWs)   bands (ev):

   -12.3246  -7.2410  -6.4616  -4.7236   0.0052   4.4414   5.9596   6.5839

          k = 0.2478-0.6184 0.0000 (  5062 PWs)   bands (ev):

   -11.9608  -7.6627  -6.0580  -5.1637  -0.6497   5.3091   6.2087   7.2893

          k = 0.2481-0.5234 0.0000 (  5062 PWs)   bands (ev):

   -11.9607  -7.6627  -6.0580  -5.1638  -0.6496   5.3092   6.2086   7.2895

          k = 0.2485-0.4284 0.0000 (  5056 PWs)   bands (ev):

   -12.3245  -7.2408  -6.4617  -4.7240   0.0055   4.4414   5.9592   6.5840

          k = 0.2488-0.3334 0.0000 (  5053 PWs)   bands (ev):

   -12.8276  -7.0233  -6.6057  -3.9443   1.0636   3.4925   5.1280   5.6017

          k = 0.2491-0.2384 0.0000 (  5038 PWs)   bands (ev):

   -13.2932  -7.5456  -5.8770  -3.1028   2.3105   2.7261   4.3713   4.7936

          k = 0.3326-0.1912 0.0000 (  5036 PWs)   bands (ev):

   -13.0670  -7.4046  -6.2815  -3.2898   2.3183   3.1588   4.8139   4.8168

          k = 0.3330-0.0962 0.0000 (  5043 PWs)   bands (ev):

   -13.2974  -7.6477  -5.5878  -3.4629   2.7760   3.3702   4.4007   4.8683

          k = 0.3333-0.0012 0.0000 (  5043 PWs)   bands (ev):

   -13.3775  -7.7325  -5.1597  -3.7657   2.6455   3.9951   4.2593   4.7363

          k = 0.3337 0.0938 0.0000 (  5043 PWs)   bands (ev):

   -13.2974  -7.6477  -5.5884  -3.4620   2.7760   3.3696   4.4005   4.8682

          k = 0.3340 0.1888 0.0000 (  5036 PWs)   bands (ev):

   -13.0671  -7.4045  -6.2822  -3.2888   2.3176   3.1587   4.8147   4.8167

          k = 0.3344 0.2838 0.0000 (  5056 PWs)   bands (ev):

   -12.7198  -7.0397  -6.8610  -3.7580   1.3621   3.7801   5.2061   5.4753

          k = 0.3306-0.7612 0.0000 (  5051 PWs)   bands (ev):

   -12.3244  -7.2085  -6.6254  -4.6622   0.6139   4.6032   6.1025   6.4181

          k = 0.3309-0.6662 0.0000 (  5056 PWs)   bands (ev):

   -11.9950  -7.2750  -6.2790  -5.5676   0.1242   5.4312   5.7655   7.4392

          k = 0.3313-0.5712 0.0000 (  5049 PWs)   bands (ev):

   -11.8642  -7.1996  -6.1402  -6.0062  -0.0499   5.4912   5.7987   7.8700

          k = 0.3316-0.4762 0.0000 (  5056 PWs)   bands (ev):

   -11.9950  -7.2746  -6.2791  -5.5681   0.1245   5.4313   5.7652   7.4384

          k = 0.3320-0.3812 0.0000 (  5051 PWs)   bands (ev):

   -12.3243  -7.2080  -6.6255  -4.6629   0.6144   4.6033   6.1023   6.4168

          k = 0.3323-0.2862 0.0000 (  5056 PWs)   bands (ev):

   -12.7197  -7.0397  -6.8605  -3.7589   1.3628   3.7802   5.2050   5.4754

          k = 0.4158-0.2390 0.0000 (  5035 PWs)   bands (ev):

   -12.5230  -7.2476  -6.9437  -3.6892   1.3279   4.2891   4.6309   6.0596

          k = 0.4162-0.1440 0.0000 (  5059 PWs)   bands (ev):

   -12.7267  -7.1355  -6.6919  -3.9675   2.0497   3.8362   5.2463   5.3886

          k = 0.4165-0.0490 0.0000 (  5060 PWs)   bands (ev):

   -12.8436  -7.2450  -6.0133  -4.6246   2.8451   3.5869   4.7994   5.7207

          k = 0.4168 0.0460 0.0000 (  5060 PWs)   bands (ev):

   -12.8437  -7.2450  -6.0138  -4.6240   2.8446   3.5868   4.7994   5.7207

          k = 0.4172 0.1410 0.0000 (  5059 PWs)   bands (ev):

   -12.7268  -7.1355  -6.6926  -3.9666   2.0490   3.8361   5.2473   5.3886

          k = 0.4175 0.2360 0.0000 (  5035 PWs)   bands (ev):

   -12.5232  -7.2482  -6.9436  -3.6882   1.3271   4.2890   4.6318   6.0594

          k = 0.4138-0.8090 0.0000 (  5051 PWs)   bands (ev):

   -12.2932  -7.5023  -6.7208  -4.1137   0.8910   4.8674   5.1374   6.7361

          k = 0.4141-0.7140 0.0000 (  5056 PWs)   bands (ev):

   -12.1094  -7.3723  -6.5298  -5.0139   0.7594   5.4009   6.0189   6.3679

          k = 0.4144-0.6190 0.0000 (  5053 PWs)   bands (ev):

   -12.0154  -6.8527  -6.4219  -6.0040   0.8059   5.1995   5.5110   7.6014

          k = 0.4148-0.5240 0.0000 (  5053 PWs)   bands (ev):

   -12.0154  -6.8521  -6.4219  -6.0047   0.8062   5.1992   5.5110   7.6017

          k = 0.4151-0.4290 0.0000 (  5056 PWs)   bands (ev):

   -12.1093  -7.3717  -6.5298  -5.0148   0.7601   5.4010   6.0183   6.3668

          k = 0.4155-0.3340 0.0000 (  5051 PWs)   bands (ev):

   -12.2931  -7.5017  -6.7208  -4.1146   0.8918   4.8673   5.1367   6.7360

          k =-0.4990 0.2868 0.0000 (  5038 PWs)   bands (ev):

   -12.2746  -7.6464  -6.7514  -3.8215   0.9493   4.5260   5.1541   6.6928

          k =-0.4986 0.3818 0.0000 (  5049 PWs)   bands (ev):

   -12.2975  -7.4468  -6.7628  -4.1810   1.1269   4.9578   5.0830   6.5681

          k =-0.4983 0.4768 0.0000 (  5054 PWs)   bands (ev):

   -12.3414  -6.8967  -6.7853  -5.0099   1.5631   4.6895   5.4952   6.4510

          k =-0.4979 0.5718 0.0000 (  5075 PWs)   bands (ev):

   -12.3626  -6.7963  -6.3037  -5.7264   1.8536   4.5845   4.9469   6.7816

          k =-0.4976 0.6668 0.0000 (  5054 PWs)   bands (ev):

   -12.3415  -6.8973  -6.7852  -5.0091   1.5625   4.6895   5.4956   6.4520

          k =-0.4973 0.7618 0.0000 (  5049 PWs)   bands (ev):

   -12.2976  -7.4474  -6.7628  -4.1801   1.1261   4.9577   5.0841   6.5682

          k =-0.5010-0.2832 0.0000 (  5038 PWs)   bands (ev):

   -12.2747  -7.6469  -6.7514  -3.8205   0.9485   4.5270   5.1539   6.6926

     the Fermi energy is    -1.1188 ev

!    total energy              =     -15.06908215 Ry
     estimated scf accuracy    <       0.00000028 Ry
     smearing contrib. (-TS)   =      -0.00018860 Ry
     internal energy E=F+TS    =     -15.06889355 Ry

     The total energy is F=E-TS. E is the sum of the following terms:
     one-electron contribution =     -65.69227033 Ry
     hartree contribution      =      34.42700653 Ry
     xc contribution           =      -7.30234835 Ry
     ewald contribution        =      23.49871859 Ry

     convergence has been achieved in   5 iterations

     negative rho (up, down):  3.440E-05 0.000E+00

     Forces acting on atoms (cartesian axes, Ry/au):

     atom    1 type  1   force =    -0.00004128    0.00561931    0.00000000
     atom    2 type  1   force =     0.00003590   -0.00867012    0.00000000
     atom    3 type  2   force =     0.00000269    0.00152541    0.00113276
     atom    4 type  2   force =     0.00000269    0.00152541   -0.00113276
     The non-local contrib.  to forces
     atom    1 type  1   force =    -0.00129944   -0.34046579    0.00000000
     atom    2 type  1   force =     0.00131163    0.33517120    0.00000000
     atom    3 type  2   force =    -0.00001184   -0.00053998   -0.11222235
     atom    4 type  2   force =    -0.00001184   -0.00053998    0.11222235
     The ionic contribution  to forces
     atom    1 type  1   force =     0.00241594    0.71310060    0.00000000
     atom    2 type  1   force =    -0.00258469   -0.72373130    0.00000000
     atom    3 type  2   force =     0.00008437    0.00531535    2.58604205
     atom    4 type  2   force =     0.00008437    0.00531535   -2.58604205
     The local contribution  to forces
     atom    1 type  1   force =    -0.00118688   -0.37414603    0.00000000
     atom    2 type  1   force =     0.00133786    0.38675463    0.00000000
     atom    3 type  2   force =    -0.00006968   -0.00323584   -2.47264848
     atom    4 type  2   force =    -0.00006968   -0.00323584    2.47264848
     The core correction contribution to forces
     atom    1 type  1   force =     0.00002781    0.00694670   -0.00000000
     atom    2 type  1   force =    -0.00002764   -0.00668271   -0.00000000
     atom    3 type  2   force =     0.00000000    0.00000000    0.00000000
     atom    4 type  2   force =     0.00000000    0.00000000    0.00000000
     The Hubbard contrib.    to forces
     atom    1 type  1   force =     0.00000000    0.00000000    0.00000000
     atom    2 type  1   force =     0.00000000    0.00000000    0.00000000
     atom    3 type  2   force =     0.00000000    0.00000000    0.00000000
     atom    4 type  2   force =     0.00000000    0.00000000    0.00000000
     The SCF correction term to forces
     atom    1 type  1   force =     0.00000153    0.00018461    0.00000000
     atom    2 type  1   force =    -0.00000102   -0.00018116    0.00000000
     atom    3 type  2   force =     0.00000008   -0.00001335   -0.00003846
     atom    4 type  2   force =     0.00000008   -0.00001335    0.00003846

     Total force =     0.010676     Total SCF correction =     0.000265

     Writing all to output data dir ./TMPDIR/pwscf.save/
 
     init_run     :      0.44s CPU      0.47s WALL (       1 calls)
     electrons    :      3.42s CPU      3.66s WALL (       1 calls)
     forces       :      0.14s CPU      0.14s WALL (       1 calls)

     Called by init_run:
     wfcinit      :      0.21s CPU      0.22s WALL (       1 calls)
     potinit      :      0.06s CPU      0.07s WALL (       1 calls)
     hinit0       :      0.14s CPU      0.15s WALL (       1 calls)

     Called by electrons:
     c_bands      :      2.92s CPU      3.09s WALL (       5 calls)
     sum_band     :      0.42s CPU      0.43s WALL (       5 calls)
     v_of_rho     :      0.06s CPU      0.06s WALL (       6 calls)
     newd         :      0.03s CPU      0.04s WALL (       6 calls)
     mix_rho      :      0.00s CPU      0.00s WALL (       5 calls)

     Called by c_bands:
     init_us_2    :      0.07s CPU      0.09s WALL (     888 calls)
     init_us_2:cp :      0.07s CPU      0.08s WALL (     888 calls)
     cegterg      :      2.80s CPU      2.95s WALL (     370 calls)

     Called by *egterg:
     cdiaghg      :      0.19s CPU      0.22s WALL (    1960 calls)
     h_psi        :      2.38s CPU      2.51s WALL (    2034 calls)
     s_psi        :      0.05s CPU      0.05s WALL (    2034 calls)
     g_psi        :      0.02s CPU      0.02s WALL (    1590 calls)

     Called by h_psi:
     h_psi:calbec :      0.10s CPU      0.10s WALL (    2034 calls)
     vloc_psi     :      2.21s CPU      2.33s WALL (    2034 calls)
     add_vuspsi   :      0.05s CPU      0.06s WALL (    2034 calls)

     General routines
     calbec       :      0.13s CPU      0.13s WALL (    2700 calls)
     fft          :      0.08s CPU      0.09s WALL (      87 calls)
     ffts         :      0.00s CPU      0.00s WALL (      11 calls)
     fftw         :      2.21s CPU      2.31s WALL (   23048 calls)
     interpolate  :      0.00s CPU      0.00s WALL (       6 calls)
 
     Parallel routines
 
     PWSCF        :      4.15s CPU      5.11s WALL

 
   This run was terminated on:  17:30: 5  12Mar2024            

=------------------------------------------------------------------------------=
   JOB DONE.
=------------------------------------------------------------------------------=
