
     Program PWSCF v.7.2 starts on  8Nov2023 at 17: 4:34 

     This program is part of the open-source Quantum ESPRESSO suite
     for quantum simulation of materials; please cite
         "P. Giannozzi et al., J. Phys.:Condens. Matter 21 395502 (2009);
         "P. Giannozzi et al., J. Phys.:Condens. Matter 29 465901 (2017);
         "P. Giannozzi et al., J. Chem. Phys. 152 154105 (2020);
          URL http://www.quantum-espresso.org", 
     in publications or presentations arising from this work. More details at
     http://www.quantum-espresso.org/quote

     Parallel version (MPI), running on     4 processors

     MPI processes distributed on     1 nodes
     9300 MiB available memory on the printing compute node when the environment starts
 
     Reading input from espresso.pwi
Warning: card &CELL ignored
Warning: card / ignored

     Current dimensions of program PWSCF are:
     Max number of different atomic species (ntypx) = 10
     Max number of k-points (npk) =  40000
     Max angular momentum in pseudopotentials (lmaxx) =  4
     Presently no symmetry can be used with electric field

 
     R & G space division:  proc/nbgrp/npool/nimage =       4
     Subspace diagonalization in iterative solution of the eigenvalue problem:
     a serial algorithm will be used

 
     Parallelization info
     --------------------
     sticks:   dense  smooth     PW     G-vecs:    dense   smooth      PW
     Min        7666    3832    958              1011072   357408   44730
     Max        7670    3833    959              1011073   357411   44733
     Sum       30669   15329   3833              4044289  1429635  178925
 
     Using Slab Decomposition
 


     bravais-lattice index     =            0
     lattice parameter (alat)  =      28.3459  a.u.
     unit-cell volume          =   22775.6289 (a.u.)^3
     number of atoms/cell      =            3
     number of atomic types    =            2
     number of electrons       =         8.00
     number of Kohn-Sham states=            8
     kinetic-energy cutoff     =      60.0000  Ry
     charge density cutoff     =     480.0000  Ry
     scf convergence threshold =      1.0E-07
     mixing beta               =       0.7000
     number of iterations used =            8  plain     mixing
     Exchange-correlation=  SLA  PW   PBX  PBC
                           (   1   4   3   4   0   0   0)

     celldm(1)=  28.345892  celldm(2)=   0.000000  celldm(3)=   0.000000
     celldm(4)=   0.000000  celldm(5)=   0.000000  celldm(6)=   0.000000

     crystal axes: (cart. coord. in units of alat)
               a(1) = (   1.000000   0.000000   0.000000 )  
               a(2) = (   0.000000   1.000000   0.000000 )  
               a(3) = (   0.000000   0.000000   1.000000 )  

     reciprocal axes: (cart. coord. in units 2 pi/alat)
               b(1) = (  1.000000  0.000000  0.000000 )  
               b(2) = (  0.000000  1.000000  0.000000 )  
               b(3) = (  0.000000  0.000000  1.000000 )  


     PseudoPot. # 1 for O  read from file:
     /home/krojas/github_files/MatSciToolKit/tutorial/example_ase_ir_2/ir_1/o_pbe_v1.2.uspp.F.UPF
     MD5 check sum: 734c27235a0248c51dbae37a1fbe46ec
     Pseudo is Ultrasoft + core correction, Zval =  6.0
     Generated by new atomic code, or converted to UPF format
     Using radial grid of  737 points,  5 beta functions with: 
                l(1) =   0
                l(2) =   0
                l(3) =   1
                l(4) =   1
                l(5) =   2
     Q(r) pseudized with  8 coefficients,  rinner =    0.900   0.900   0.900
                                                       0.900   0.900

     PseudoPot. # 2 for H  read from file:
     /home/krojas/github_files/MatSciToolKit/tutorial/example_ase_ir_2/ir_1/h_pbe_v1.4.uspp.F.UPF
     MD5 check sum: 761ae9a214b05c3daf00ab9f6b793d6f
     Pseudo is Ultrasoft, Zval =  1.0
     Generated by new atomic code, or converted to UPF format
     Using radial grid of  615 points,  2 beta functions with: 
                l(1) =   0
                l(2) =   0
     Q(r) pseudized with  8 coefficients,  rinner =    0.700

     atomic species   valence    mass     pseudopotential
        O              6.00    15.99900     O ( 1.00)
        H              1.00     1.00800     H ( 1.00)

     No symmetry found



   Cartesian axes

     site n.     atom                  positions (alat units)
         1           O   tau(   1) = (   0.5000000   0.5000000   0.5201804  )
         2           H   tau(   2) = (   0.4993333   0.5513479   0.4798196  )
         3           H   tau(   3) = (   0.5000000   0.4486521   0.4798196  )

     number of k points=     1  Gaussian smearing, width (Ry)=  0.0100
                       cart. coord. in units 2pi/alat
        k(    1) = (   0.0000000   0.0000000   0.0000000), wk =   2.0000000

     Dense  grid:  4044289 G-vectors     FFT dimensions: ( 200, 200, 200)

     Smooth grid:  1429635 G-vectors     FFT dimensions: ( 144, 144, 144)

     Estimated max dynamical RAM per process >       2.25 GB

     Estimated total dynamical RAM >       9.02 GB

     Initial potential from superposition of free atoms

     starting charge       8.0000, renormalised to       8.0000

     negative rho (up, down):  5.059E-04 0.000E+00
 
     Adding external electric field

     Computed dipole along edir(2) : 
        Dipole                0.0000 Ry au,          0.0000 Debye
        Dipole field          0.0000 Ry au, 
 
        Potential amp.       -0.0000 Ry
        Total length         28.3431 bohr
 
     Starting wfcs are    6 randomized atomic wfcs +    2 random wfcs

     total cpu time spent up to now is        8.3 secs

     per-process dynamical memory:   488.9 Mb

     Self-consistent Calculation

     iteration #  1     ecut=    60.00 Ry     beta= 0.70
     Davidson diagonalization with overlap
     ethr =  1.00E-02,  avg # of iterations =  8.0

     negative rho (up, down):  1.822E-03 0.000E+00
 
     Adding external electric field

     Computed dipole along edir(2) : 
        Dipole                0.0001 Ry au,          0.0002 Debye
        Dipole field          0.0000 Ry au, 
 
        Potential amp.       -0.0000 Ry
        Total length         28.3431 bohr
 

     total cpu time spent up to now is       19.8 secs

     total energy              =     -34.47403374 Ry
     estimated scf accuracy    <       0.45690153 Ry

     iteration #  2     ecut=    60.00 Ry     beta= 0.70
     Davidson diagonalization with overlap
     ethr =  5.71E-03,  avg # of iterations =  2.0

     negative rho (up, down):  2.092E-03 0.000E+00
 
     Adding external electric field

     Computed dipole along edir(2) : 
        Dipole                0.0001 Ry au,          0.0004 Debye
        Dipole field          0.0000 Ry au, 
 
        Potential amp.       -0.0000 Ry
        Total length         28.3431 bohr
 

     total cpu time spent up to now is       30.0 secs

     total energy              =     -34.58676642 Ry
     estimated scf accuracy    <       0.45076556 Ry

     iteration #  3     ecut=    60.00 Ry     beta= 0.70
     Davidson diagonalization with overlap
     ethr =  5.63E-03,  avg # of iterations =  2.0

     negative rho (up, down):  2.371E-03 0.000E+00
 
     Adding external electric field

     Computed dipole along edir(2) : 
        Dipole               -0.0001 Ry au,         -0.0002 Debye
        Dipole field         -0.0000 Ry au, 
 
        Potential amp.        0.0000 Ry
        Total length         28.3431 bohr
 

     total cpu time spent up to now is       40.3 secs

     total energy              =     -34.66655736 Ry
     estimated scf accuracy    <       0.00371020 Ry

     iteration #  4     ecut=    60.00 Ry     beta= 0.70
     Davidson diagonalization with overlap
     ethr =  4.64E-05,  avg # of iterations =  8.0

     negative rho (up, down):  2.367E-03 0.000E+00
 
     Adding external electric field

     Computed dipole along edir(2) : 
        Dipole               -0.0000 Ry au,         -0.0001 Debye
        Dipole field         -0.0000 Ry au, 
 
        Potential amp.        0.0000 Ry
        Total length         28.3431 bohr
 

     total cpu time spent up to now is       52.3 secs

     total energy              =     -34.66756439 Ry
     estimated scf accuracy    <       0.00176443 Ry

     iteration #  5     ecut=    60.00 Ry     beta= 0.70
     Davidson diagonalization with overlap
     ethr =  2.21E-05,  avg # of iterations =  1.0

     negative rho (up, down):  2.409E-03 0.000E+00
 
     Adding external electric field

     Computed dipole along edir(2) : 
        Dipole                0.0002 Ry au,          0.0005 Debye
        Dipole field          0.0000 Ry au, 
 
        Potential amp.       -0.0000 Ry
        Total length         28.3431 bohr
 

     total cpu time spent up to now is       62.8 secs

     total energy              =     -34.66741729 Ry
     estimated scf accuracy    <       0.00035303 Ry

     iteration #  6     ecut=    60.00 Ry     beta= 0.70
     Davidson diagonalization with overlap
     ethr =  4.41E-06,  avg # of iterations = 15.0

     negative rho (up, down):  2.405E-03 0.000E+00
 
     Adding external electric field

     Computed dipole along edir(2) : 
        Dipole                0.0000 Ry au,          0.0000 Debye
        Dipole field          0.0000 Ry au, 
 
        Potential amp.       -0.0000 Ry
        Total length         28.3431 bohr
 

     total cpu time spent up to now is       74.3 secs

     total energy              =     -34.66753774 Ry
     estimated scf accuracy    <       0.00012426 Ry

     iteration #  7     ecut=    60.00 Ry     beta= 0.70
     Davidson diagonalization with overlap
     ethr =  1.55E-06,  avg # of iterations =  4.0

     negative rho (up, down):  2.412E-03 0.000E+00
 
     Adding external electric field

     Computed dipole along edir(2) : 
        Dipole                0.0000 Ry au,          0.0000 Debye
        Dipole field          0.0000 Ry au, 
 
        Potential amp.       -0.0000 Ry
        Total length         28.3431 bohr
 

     total cpu time spent up to now is       84.8 secs

     total energy              =     -34.66755705 Ry
     estimated scf accuracy    <       0.00000124 Ry

     iteration #  8     ecut=    60.00 Ry     beta= 0.70
     Davidson diagonalization with overlap
     ethr =  1.55E-08,  avg # of iterations =  2.0

     negative rho (up, down):  2.413E-03 0.000E+00
 
     Adding external electric field

     Computed dipole along edir(2) : 
        Dipole               -0.0000 Ry au,         -0.0000 Debye
        Dipole field         -0.0000 Ry au, 
 
        Potential amp.        0.0000 Ry
        Total length         28.3431 bohr
 

     total cpu time spent up to now is       94.1 secs

     End of self-consistent calculation

          k = 0.0000 0.0000 0.0000 (178925 PWs)   bands (ev):

   -25.1326 -12.9371  -9.3066  -7.1894  -0.9900  -0.1058   0.2509   0.3791

     the Fermi energy is    -5.3186 ev

!    total energy              =     -34.66755736 Ry
     estimated scf accuracy    <       0.00000005 Ry
     smearing contrib. (-TS)   =      -0.00000000 Ry
     internal energy E=F+TS    =     -34.66755736 Ry

     The total energy is F=E-TS. E is the sum of the following terms:
     one-electron contribution =     -69.44274656 Ry
     hartree contribution      =      36.19968346 Ry
     xc contribution           =      -8.67795998 Ry
     ewald contribution        =       7.25346573 Ry
     electric field correction =       0.00000000 Ry

     convergence has been achieved in   8 iterations

     negative rho (up, down):  2.413E-03 0.000E+00

     Forces acting on atoms (cartesian axes, Ry/au):

     atom    1 type  1   force =    -0.00000268    0.00008047   -0.00004125
     atom    2 type  2   force =     0.00000307   -0.00004958    0.00005164
     atom    3 type  2   force =    -0.00000040   -0.00003089   -0.00001039
     The non-local contrib.  to forces
     atom    1 type  1   force =    -0.01795609   -0.00010617   -2.17355101
     atom    2 type  2   force =     0.00243857   -0.19520142    0.14173416
     atom    3 type  2   force =    -0.00009741    0.19524075    0.14176586
     The ionic contribution  to forces
     atom    1 type  1   force =     0.03569213    0.00043015    4.32197612
     atom    2 type  2   force =    -0.03721755    2.98391061   -2.16081901
     atom    3 type  2   force =     0.00152543   -2.98434076   -2.16115711
     The local contribution  to forces
     atom    1 type  1   force =    -0.01783631   -0.00021566   -2.16066602
     atom    2 type  2   force =     0.03478108   -2.78874661    2.01907004
     atom    3 type  2   force =    -0.00143047    2.78905774    2.01931302
     The core correction contribution to forces
     atom    1 type  1   force =     0.00009563    0.00000004    0.01159438
     atom    2 type  2   force =     0.00000000    0.00000000    0.00000000
     atom    3 type  2   force =     0.00000000    0.00000000    0.00000000
     The Hubbard contrib.    to forces
     atom    1 type  1   force =     0.00000000    0.00000000    0.00000000
     atom    2 type  2   force =     0.00000000    0.00000000    0.00000000
     atom    3 type  2   force =     0.00000000    0.00000000    0.00000000
     The SCF correction term to forces
     atom    1 type  1   force =     0.00000064   -0.00002822    0.00057750
     atom    2 type  2   force =    -0.00000035   -0.00001240    0.00003865
     atom    3 type  2   force =     0.00000072    0.00001115    0.00004005

     Total force =     0.000120     Total SCF correction =     0.000581
     SCF correction compared to forces is large: reduce conv_thr to get better values

     Writing all to output data dir tmpdir/pwscf.save/
 
     init_run     :      6.65s CPU      8.24s WALL (       1 calls)
     electrons    :     71.62s CPU     85.91s WALL (       1 calls)
     forces       :      3.92s CPU      4.87s WALL (       1 calls)

     Called by init_run:
     wfcinit      :      0.40s CPU      0.44s WALL (       1 calls)
     potinit      :      1.88s CPU      2.23s WALL (       1 calls)
     hinit0       :      0.43s CPU      0.56s WALL (       1 calls)

     Called by electrons:
     c_bands      :     12.90s CPU     13.95s WALL (       8 calls)
     sum_band     :     28.03s CPU     33.09s WALL (       8 calls)
     v_of_rho     :     12.34s CPU     14.70s WALL (       9 calls)
     newd         :     16.51s CPU     23.06s WALL (       9 calls)
     mix_rho      :      3.48s CPU      3.75s WALL (       8 calls)

     Called by c_bands:
     init_us_2    :      0.18s CPU      0.18s WALL (      17 calls)
     init_us_2:cp :      0.18s CPU      0.18s WALL (      17 calls)
     cegterg      :     12.57s CPU     13.62s WALL (       8 calls)

     Called by *egterg:
     cdiaghg      :      0.01s CPU      0.01s WALL (      50 calls)
     h_psi        :     11.42s CPU     12.49s WALL (      51 calls)
     s_psi        :      0.16s CPU      0.17s WALL (      51 calls)
     g_psi        :      0.04s CPU      0.04s WALL (      42 calls)

     Called by h_psi:
     h_psi:calbec :      0.17s CPU      0.19s WALL (      51 calls)
     vloc_psi     :     11.02s CPU     12.07s WALL (      51 calls)
     add_vuspsi   :      0.17s CPU      0.18s WALL (      51 calls)

     General routines
     calbec       :      0.22s CPU      0.24s WALL (      63 calls)
     fft          :     11.38s CPU     14.19s WALL (     126 calls)
     ffts         :      0.54s CPU      0.67s WALL (      17 calls)
     fftw         :      8.88s CPU      9.92s WALL (     514 calls)
     interpolate  :      1.21s CPU      1.46s WALL (       9 calls)
 
     Parallel routines
 
     PWSCF        :   1m22.33s CPU   1m39.30s WALL

 
   This run was terminated on:  17: 6:13   8Nov2023            

=------------------------------------------------------------------------------=
   JOB DONE.
=------------------------------------------------------------------------------=
