
     Program PWSCF v.7.2 starts on  1Dec2023 at 10:17: 9 

     This program is part of the open-source Quantum ESPRESSO suite
     for quantum simulation of materials; please cite
         "P. Giannozzi et al., J. Phys.:Condens. Matter 21 395502 (2009);
         "P. Giannozzi et al., J. Phys.:Condens. Matter 29 465901 (2017);
         "P. Giannozzi et al., J. Chem. Phys. 152 154105 (2020);
          URL http://www.quantum-espresso.org", 
     in publications or presentations arising from this work. More details at
     http://www.quantum-espresso.org/quote

     Parallel version (MPI), running on     4 processors

     MPI processes distributed on     1 nodes
     12559 MiB available memory on the printing compute node when the environment starts
 
     Reading input from espresso.pwi
Warning: card &CELL ignored
Warning: card / ignored

     Current dimensions of program PWSCF are:
     Max number of different atomic species (ntypx) = 10
     Max number of k-points (npk) =  40000
     Max angular momentum in pseudopotentials (lmaxx) =  4

     IMPORTANT: XC functional enforced from input :
     Exchange-correlation= VDW-DF2-B86R
                           (   1   4  26   0   2   0   0)
     Any further DFT definition will be discarded
     Please, verify this is what you really want

     Message from routine setup:
     using ibrav=0 with symmetry is DISCOURAGED, use correct ibrav instead
 
     R & G space division:  proc/nbgrp/npool/nimage =       4
     Subspace diagonalization in iterative solution of the eigenvalue problem:
     a serial algorithm will be used

 
     Parallelization info
     --------------------
     sticks:   dense  smooth     PW     G-vecs:    dense   smooth      PW
     Min         271     137     41                28481    10067    1796
     Max         272     139     44                28485    10069    1803
     Sum        1085     551    167               113933    40273    7201
 
     Using Slab Decomposition
 


     bravais-lattice index     =            0
     lattice parameter (alat)  =       5.6973  a.u.
     unit-cell volume          =     642.1518 (a.u.)^3
     number of atoms/cell      =            4
     number of atomic types    =            2
     number of electrons       =         8.00
     number of Kohn-Sham states=            8
     kinetic-energy cutoff     =      60.0000  Ry
     charge density cutoff     =     480.0000  Ry
     scf convergence threshold =      1.0E-09
     mixing beta               =       0.7000
     number of iterations used =            8  plain     mixing
     Exchange-correlation= VDW-DF2-B86R
                           (   1   4  26   0   2   0   0)

     celldm(1)=   5.697334  celldm(2)=   0.000000  celldm(3)=   0.000000
     celldm(4)=   0.000000  celldm(5)=   0.000000  celldm(6)=   0.000000

     crystal axes: (cart. coord. in units of alat)
               a(1) = (   0.999994  -0.003591   0.000000 )  
               a(2) = (   0.503167   0.875437   0.000000 )  
               a(3) = (   0.000000   0.000000   3.958265 )  

     reciprocal axes: (cart. coord. in units 2 pi/alat)
               b(1) = (  0.997946 -0.573581  0.000000 )  
               b(2) = (  0.004094  1.139933  0.000000 )  
               b(3) = (  0.000000  0.000000  0.252636 )  


     PseudoPot. # 1 for B  read from file:
     /home/krojas/github_files/MatSciToolKit/tutorial/example_ase_vib_1/b_pbe_v1.4.uspp.F.UPF
     MD5 check sum: cc6de2960df11db49a60e589f9ebb39b
     Pseudo is Ultrasoft + core correction, Zval =  3.0
     Generated by new atomic code, or converted to UPF format
     Using radial grid of  781 points,  4 beta functions with: 
                l(1) =   0
                l(2) =   0
                l(3) =   1
                l(4) =   1
     Q(r) pseudized with  8 coefficients,  rinner =    1.100   1.100   1.100


     PseudoPot. # 2 for H  read from file:
     /home/krojas/github_files/MatSciToolKit/tutorial/example_ase_vib_1/h_pbe_v1.4.uspp.F.UPF
     MD5 check sum: 761ae9a214b05c3daf00ab9f6b793d6f
     Pseudo is Ultrasoft, Zval =  1.0
     Generated by new atomic code, or converted to UPF format
     Using radial grid of  615 points,  2 beta functions with: 
                l(1) =   0
                l(2) =   0
     Q(r) pseudized with  8 coefficients,  rinner =    0.700

     atomic species   valence    mass     pseudopotential
        B              3.00    10.81000     B ( 1.00)
        H              1.00     1.00800     H ( 1.00)

      2 Sym. Ops. (no inversion) found



   Cartesian axes

     site n.     atom                  positions (alat units)
         1           B   tau(   1) = (   0.0000000   0.0000000   1.9791325  )
         2           B   tau(   2) = (   0.5009657   0.2715580   1.9791325  )
         3           H   tau(   3) = (   0.5020846   0.5735104   2.2998349  )
         4           H   tau(   4) = (   0.5020846   0.5735104   1.6584302  )

     number of k points=    74  Gaussian smearing, width (Ry)=  0.0100
                       cart. coord. in units 2pi/alat
        k(    1) = (   0.0000000   0.0000000   0.0000000), wk =   0.0138889
        k(    2) = (   0.0003412   0.0949944   0.0000000), wk =   0.0277778
        k(    3) = (   0.0006823   0.1899889   0.0000000), wk =   0.0277778
        k(    4) = (   0.0010235   0.2849833   0.0000000), wk =   0.0277778
        k(    5) = (   0.0013646   0.3799777   0.0000000), wk =   0.0277778
        k(    6) = (   0.0017058   0.4749722   0.0000000), wk =   0.0277778
        k(    7) = (  -0.0020470  -0.5699666   0.0000000), wk =   0.0138889
        k(    8) = (   0.0831622  -0.0477984   0.0000000), wk =   0.0277778
        k(    9) = (   0.0835034   0.0471960   0.0000000), wk =   0.0277778
        k(   10) = (   0.0838445   0.1421905   0.0000000), wk =   0.0277778
        k(   11) = (   0.0841857   0.2371849   0.0000000), wk =   0.0277778
        k(   12) = (   0.0845269   0.3321793   0.0000000), wk =   0.0277778
        k(   13) = (   0.0848680   0.4271738   0.0000000), wk =   0.0277778
        k(   14) = (   0.0811152  -0.6177650   0.0000000), wk =   0.0277778
        k(   15) = (   0.0814564  -0.5227706   0.0000000), wk =   0.0277778
        k(   16) = (   0.0817976  -0.4277762   0.0000000), wk =   0.0277778
        k(   17) = (   0.0821387  -0.3327817   0.0000000), wk =   0.0277778
        k(   18) = (   0.0824799  -0.2377873   0.0000000), wk =   0.0277778
        k(   19) = (   0.0828210  -0.1427928   0.0000000), wk =   0.0277778
        k(   20) = (   0.1663244  -0.0955968   0.0000000), wk =   0.0277778
        k(   21) = (   0.1666656  -0.0006024   0.0000000), wk =   0.0277778
        k(   22) = (   0.1670067   0.0943921   0.0000000), wk =   0.0277778
        k(   23) = (   0.1673479   0.1893865   0.0000000), wk =   0.0277778
        k(   24) = (   0.1676891   0.2843809   0.0000000), wk =   0.0277778
        k(   25) = (   0.1680302   0.3793754   0.0000000), wk =   0.0277778
        k(   26) = (   0.1642774  -0.6655634   0.0000000), wk =   0.0277778
        k(   27) = (   0.1646186  -0.5705690   0.0000000), wk =   0.0277778
        k(   28) = (   0.1649598  -0.4755746   0.0000000), wk =   0.0277778
        k(   29) = (   0.1653009  -0.3805801   0.0000000), wk =   0.0277778
        k(   30) = (   0.1656421  -0.2855857   0.0000000), wk =   0.0277778
        k(   31) = (   0.1659833  -0.1905913   0.0000000), wk =   0.0277778
        k(   32) = (   0.2494866  -0.1433952   0.0000000), wk =   0.0277778
        k(   33) = (   0.2498278  -0.0484008   0.0000000), wk =   0.0277778
        k(   34) = (   0.2501689   0.0465936   0.0000000), wk =   0.0277778
        k(   35) = (   0.2505101   0.1415881   0.0000000), wk =   0.0277778
        k(   36) = (   0.2508513   0.2365825   0.0000000), wk =   0.0277778
        k(   37) = (   0.2511924   0.3315769   0.0000000), wk =   0.0277778
        k(   38) = (   0.2474397  -0.7133618   0.0000000), wk =   0.0277778
        k(   39) = (   0.2477808  -0.6183674   0.0000000), wk =   0.0277778
        k(   40) = (   0.2481220  -0.5233730   0.0000000), wk =   0.0277778
        k(   41) = (   0.2484631  -0.4283785   0.0000000), wk =   0.0277778
        k(   42) = (   0.2488043  -0.3333841   0.0000000), wk =   0.0277778
        k(   43) = (   0.2491455  -0.2383897   0.0000000), wk =   0.0277778
        k(   44) = (   0.3326488  -0.1911936   0.0000000), wk =   0.0277778
        k(   45) = (   0.3329900  -0.0961992   0.0000000), wk =   0.0277778
        k(   46) = (   0.3333312  -0.0012048   0.0000000), wk =   0.0277778
        k(   47) = (   0.3336723   0.0937897   0.0000000), wk =   0.0277778
        k(   48) = (   0.3340135   0.1887841   0.0000000), wk =   0.0277778
        k(   49) = (   0.3343546   0.2837785   0.0000000), wk =   0.0277778
        k(   50) = (   0.3306019  -0.7611603   0.0000000), wk =   0.0277778
        k(   51) = (   0.3309430  -0.6661658   0.0000000), wk =   0.0277778
        k(   52) = (   0.3312842  -0.5711714   0.0000000), wk =   0.0277778
        k(   53) = (   0.3316253  -0.4761769   0.0000000), wk =   0.0277778
        k(   54) = (   0.3319665  -0.3811825   0.0000000), wk =   0.0277778
        k(   55) = (   0.3323077  -0.2861881   0.0000000), wk =   0.0277778
        k(   56) = (   0.4158110  -0.2389921   0.0000000), wk =   0.0277778
        k(   57) = (   0.4161522  -0.1439976   0.0000000), wk =   0.0277778
        k(   58) = (   0.4164934  -0.0490032   0.0000000), wk =   0.0277778
        k(   59) = (   0.4168345   0.0459913   0.0000000), wk =   0.0277778
        k(   60) = (   0.4171757   0.1409857   0.0000000), wk =   0.0277778
        k(   61) = (   0.4175169   0.2359801   0.0000000), wk =   0.0277778
        k(   62) = (   0.4137641  -0.8089587   0.0000000), wk =   0.0277778
        k(   63) = (   0.4141052  -0.7139642   0.0000000), wk =   0.0277778
        k(   64) = (   0.4144464  -0.6189698   0.0000000), wk =   0.0277778
        k(   65) = (   0.4147876  -0.5239754   0.0000000), wk =   0.0277778
        k(   66) = (   0.4151287  -0.4289809   0.0000000), wk =   0.0277778
        k(   67) = (   0.4154699  -0.3339865   0.0000000), wk =   0.0277778
        k(   68) = (  -0.4989732   0.2867905   0.0000000), wk =   0.0138889
        k(   69) = (  -0.4986321   0.3817849   0.0000000), wk =   0.0277778
        k(   70) = (  -0.4982909   0.4767793   0.0000000), wk =   0.0277778
        k(   71) = (  -0.4979498   0.5717738   0.0000000), wk =   0.0277778
        k(   72) = (  -0.4976086   0.6667682   0.0000000), wk =   0.0277778
        k(   73) = (  -0.4972674   0.7617626   0.0000000), wk =   0.0277778
        k(   74) = (  -0.5010202  -0.2831762   0.0000000), wk =   0.0138889

     Dense  grid:   113933 G-vectors     FFT dimensions: (  40,  45, 160)

     Smooth grid:    40273 G-vectors     FFT dimensions: (  30,  30, 120)

     Estimated max dynamical RAM per process >      51.09 MB

     Estimated total dynamical RAM >     204.35 MB

     Initial potential from superposition of free atoms

     starting charge       7.9994, renormalised to       8.0000

     negative rho (up, down):  1.264E-05 0.000E+00


     %%%%%%%%%%%%%%%%%%%%%%%%%%%%%%%%%%%%%%%%%%%%%%%%%%%%%%%%%%%%%%%%%%%%%%%%
     %                                                                      %
     % You are using vdW-DF, which was implemented by the Thonhauser group. %
     % Please cite the following two papers that made this development      %
     % possible and the two reviews that describe the various versions:     %
     %                                                                      %
     %   T. Thonhauser et al., PRL 115, 136402 (2015).                      %
     %   T. Thonhauser et al., PRB 76, 125112 (2007).                       %
     %   K. Berland et al., Rep. Prog. Phys. 78, 066501 (2015).             %
     %   D.C. Langreth et al., J. Phys.: Condens. Matter 21, 084203 (2009). %
     %                                                                      %
     % If you are calculating stress with vdW-DF, please also cite:         %
     %                                                                      %
     %   R. Sabatini et al., J. Phys.: Condens. Matter 24, 424209 (2012).   %
     %                                                                      %
     %%%%%%%%%%%%%%%%%%%%%%%%%%%%%%%%%%%%%%%%%%%%%%%%%%%%%%%%%%%%%%%%%%%%%%%%

     %%%%%%%%%%%%%%%%%%%%%%%%%%%%%%%%%%%%%%%%%%%%%%%%%%%%%%%%%%%%%%%%%%%%%%%%
     %                                                                      %
     %  vdW-DF NEWS:                                                        %
     %                                                                      %
     %  * vdW-DF3 is now available. DOI: 10.1021/acs.jctc.0c00471           %
     %    use with input_dft = 'vdW-DF3-opt1' or 'vdW-DF3-opt2'             %
     %                                                                      %
     %  * Unscreened and range-separated hybrid vdW-DF-cx functionals       %
     %    DOI: 10.1063/1.4986522 and 10.1088/1361-648X/ac2ad2               %
     %    use with input_dft = 'vdW-DF-cx0'    and 'vdW-DF-ahcx'            %
     %  * Unscreened and range-separated hybrid vdW-DF2-b86r functionals    %
     %    DOI: 10.1063/1.4986522 and DOI: 10.1103/PhysRevX.12.041003        %
     %    use with input_dft = 'vdW-DF2-br0' and 'vdW-DF2-ahbr'             %
     %                                                                      %
     %%%%%%%%%%%%%%%%%%%%%%%%%%%%%%%%%%%%%%%%%%%%%%%%%%%%%%%%%%%%%%%%%%%%%%%%


     Starting wfcs are   10 randomized atomic wfcs

     total cpu time spent up to now is       28.3 secs

     per-process dynamical memory:   100.7 Mb

     Self-consistent Calculation

     iteration #  1     ecut=    60.00 Ry     beta= 0.70
     Davidson diagonalization with overlap
     ethr =  1.00E-02,  avg # of iterations =  3.9

     negative rho (up, down):  1.288E-05 0.000E+00

     total cpu time spent up to now is       31.4 secs

     total energy              =     -15.04545828 Ry
     estimated scf accuracy    <       0.32933064 Ry

     iteration #  2     ecut=    60.00 Ry     beta= 0.70
     Davidson diagonalization with overlap
     ethr =  4.12E-03,  avg # of iterations =  3.8

     negative rho (up, down):  2.184E-05 0.000E+00

     total cpu time spent up to now is       34.2 secs

     total energy              =     -15.10082982 Ry
     estimated scf accuracy    <       0.01904415 Ry

     iteration #  3     ecut=    60.00 Ry     beta= 0.70
     Davidson diagonalization with overlap
     ethr =  2.38E-04,  avg # of iterations =  4.8

     negative rho (up, down):  3.099E-05 0.000E+00

     total cpu time spent up to now is       37.4 secs

     total energy              =     -15.10419754 Ry
     estimated scf accuracy    <       0.00058919 Ry

     iteration #  4     ecut=    60.00 Ry     beta= 0.70
     Davidson diagonalization with overlap
     ethr =  7.36E-06,  avg # of iterations =  5.4

     negative rho (up, down):  3.287E-05 0.000E+00

     total cpu time spent up to now is       40.5 secs

     total energy              =     -15.10428987 Ry
     estimated scf accuracy    <       0.00000712 Ry

     iteration #  5     ecut=    60.00 Ry     beta= 0.70
     Davidson diagonalization with overlap
     ethr =  8.91E-08,  avg # of iterations =  3.1

     negative rho (up, down):  3.334E-05 0.000E+00

     total cpu time spent up to now is       43.2 secs

     total energy              =     -15.10429271 Ry
     estimated scf accuracy    <       0.00000042 Ry

     iteration #  6     ecut=    60.00 Ry     beta= 0.70
     Davidson diagonalization with overlap
     ethr =  5.24E-09,  avg # of iterations =  2.1

     negative rho (up, down):  3.348E-05 0.000E+00

     total cpu time spent up to now is       45.7 secs

     total energy              =     -15.10429278 Ry
     estimated scf accuracy    <       0.00000002 Ry

     iteration #  7     ecut=    60.00 Ry     beta= 0.70
     Davidson diagonalization with overlap
     ethr =  2.28E-10,  avg # of iterations =  2.5

     negative rho (up, down):  3.347E-05 0.000E+00

     total cpu time spent up to now is       48.3 secs

     End of self-consistent calculation

          k = 0.0000 0.0000 0.0000 (  5017 PWs)   bands (ev):

   -14.5317  -8.8544  -3.0966  -0.6486   0.5640   1.9362   2.9057   5.5965

          k = 0.0003 0.0950 0.0000 (  4979 PWs)   bands (ev):

   -14.4330  -8.7367  -3.4834  -0.8950   0.6868   2.0772   3.0335   5.7051

          k = 0.0007 0.1900 0.0000 (  4988 PWs)   bands (ev):

   -14.1420  -8.3889  -4.4718  -1.4607   1.0706   2.4822   3.4240   3.9685

          k = 0.0010 0.2850 0.0000 (  5020 PWs)   bands (ev):

   -13.6769  -7.8308  -5.7391  -2.0761   1.7182   1.9062   3.3007   4.0499

          k = 0.0014 0.3800 0.0000 (  5038 PWs)   bands (ev):

   -13.0837  -7.1137  -7.0179  -2.5824   0.1869   2.5851   4.2677   4.6381

          k = 0.0017 0.4750 0.0000 (  5038 PWs)   bands (ev):

   -12.4870  -8.0634  -6.3818  -2.9064  -1.1724   3.4616   4.9197   5.5264

          k =-0.0020-0.5700 0.0000 (  5036 PWs)   bands (ev):

   -12.1968  -8.5088  -6.0188  -3.0173  -1.7470   3.7913   5.6276   6.1148

          k = 0.0832-0.0478 0.0000 (  5007 PWs)   bands (ev):

   -14.4332  -8.7537  -3.3740  -1.0354   0.6998   2.0772   3.0474   5.6658

          k = 0.0835 0.0472 0.0000 (  5007 PWs)   bands (ev):

   -14.4332  -8.7537  -3.3741  -1.0352   0.6998   2.0772   3.0474   5.6662

          k = 0.0838 0.1422 0.0000 (  5003 PWs)   bands (ev):

   -14.2386  -8.5226  -4.0648  -1.4392   0.9532   2.3520   3.3082   4.8514

          k = 0.0842 0.2372 0.0000 (  5010 PWs)   bands (ev):

   -13.8605  -8.0725  -5.1623  -2.0773   1.4742   2.6233   3.2040   3.8345

          k = 0.0845 0.3322 0.0000 (  5029 PWs)   bands (ev):

   -13.3286  -7.4368  -6.3982  -2.6974   1.0243   2.2496   3.8476   4.5684

          k = 0.0849 0.4272 0.0000 (  5030 PWs)   bands (ev):

   -12.7191  -7.5470  -6.7023  -3.1538  -0.5023   3.2046   4.9576   5.1302

          k = 0.0811-0.6178 0.0000 (  5055 PWs)   bands (ev):

   -12.2355  -8.3196  -6.1114  -3.3908  -1.4991   3.9993   5.5594   6.2864

          k = 0.0815-0.5228 0.0000 (  5055 PWs)   bands (ev):

   -12.2354  -8.3196  -6.1114  -3.3908  -1.4991   3.9993   5.5595   6.2864

          k = 0.0818-0.4278 0.0000 (  5030 PWs)   bands (ev):

   -12.7191  -7.5470  -6.7023  -3.1538  -0.5023   3.2046   4.9576   5.1302

          k = 0.0821-0.3328 0.0000 (  5029 PWs)   bands (ev):

   -13.3285  -7.4368  -6.3982  -2.6974   1.0243   2.2496   3.8477   4.5684

          k = 0.0825-0.2378 0.0000 (  5010 PWs)   bands (ev):

   -13.8604  -8.0725  -5.1622  -2.0774   1.4743   2.6234   3.2040   3.8345

          k = 0.0828-0.1428 0.0000 (  5003 PWs)   bands (ev):

   -14.2386  -8.5226  -4.0647  -1.4394   0.9532   2.3521   3.3083   4.8516

          k = 0.1663-0.0956 0.0000 (  5007 PWs)   bands (ev):

   -14.1441  -8.4615  -4.1290  -1.9017   1.1135   2.4887   3.4758   5.3183

          k = 0.1667-0.0006 0.0000 (  4991 PWs)   bands (ev):

   -14.2395  -8.5729  -3.7738  -1.8093   0.9850   2.3574   3.3439   5.9843

          k = 0.1670 0.0944 0.0000 (  5007 PWs)   bands (ev):

   -14.1441  -8.4615  -4.1292  -1.9013   1.1135   2.4887   3.4757   5.3179

          k = 0.1673 0.1894 0.0000 (  5031 PWs)   bands (ev):

   -13.8634  -8.1339  -4.9445  -2.3555   1.5040   2.7913   3.7096   3.8742

          k = 0.1677 0.2844 0.0000 (  5037 PWs)   bands (ev):

   -13.4182  -7.6139  -5.9409  -3.0818   1.7789   2.1607   3.7406   4.5426

          k = 0.1680 0.3794 0.0000 (  5046 PWs)   bands (ev):

   -12.8592  -6.9700  -6.9602  -3.7541   0.2984   3.0571   4.6651   5.4163

          k = 0.1643-0.6656 0.0000 (  5071 PWs)   bands (ev):

   -12.3132  -7.8380  -6.3208  -4.1897  -0.8645   4.0829   5.7934   6.1239

          k = 0.1646-0.5706 0.0000 (  5067 PWs)   bands (ev):

   -12.0573  -8.2090  -6.0208  -4.3372  -1.3423   4.6969   6.5093   6.8305

          k = 0.1650-0.4756 0.0000 (  5071 PWs)   bands (ev):

   -12.3131  -7.8380  -6.3208  -4.1897  -0.8645   4.0829   5.7935   6.1239

          k = 0.1653-0.3806 0.0000 (  5048 PWs)   bands (ev):

   -12.8592  -6.9699  -6.9602  -3.7542   0.2985   3.0572   4.6651   5.4164

          k = 0.1656-0.2856 0.0000 (  5037 PWs)   bands (ev):

   -13.4181  -7.6138  -5.9408  -3.0820   1.7791   2.1608   3.7407   4.5426

          k = 0.1660-0.1906 0.0000 (  5031 PWs)   bands (ev):

   -13.8634  -8.1339  -4.9442  -2.3559   1.5040   2.7914   3.7098   3.8742

          k = 0.2495-0.1434 0.0000 (  5031 PWs)   bands (ev):

   -13.6870  -8.0128  -5.2031  -2.7774   1.8069   2.9984   3.9866   4.1872

          k = 0.2498-0.0484 0.0000 (  5026 PWs)   bands (ev):

   -13.8661  -8.2146  -4.5803  -2.8092   1.5448   2.8957   3.9236   5.1365

          k = 0.2502 0.0466 0.0000 (  5026 PWs)   bands (ev):

   -13.8661  -8.2146  -4.5806  -2.8089   1.5448   2.8957   3.9236   5.1361

          k = 0.2505 0.1416 0.0000 (  5031 PWs)   bands (ev):

   -13.6871  -8.0128  -5.2035  -2.7768   1.8069   2.9983   3.9862   4.1869

          k = 0.2509 0.2366 0.0000 (  5038 PWs)   bands (ev):

   -13.3438  -7.6269  -5.9692  -3.2444   2.1818   2.3295   3.9582   4.7082

          k = 0.2512 0.3316 0.0000 (  5053 PWs)   bands (ev):

   -12.8749  -7.1020  -6.7021  -4.0700   0.9595   3.1065   4.6926   5.5126

          k = 0.2474-0.7134 0.0000 (  5056 PWs)   bands (ev):

   -12.3666  -7.3439  -6.5368  -4.8384  -0.0939   4.0836   5.5552   6.4678

          k = 0.2478-0.6184 0.0000 (  5062 PWs)   bands (ev):

   -11.9972  -7.7729  -6.1299  -5.2722  -0.7491   5.0255   5.9140   6.9667

          k = 0.2481-0.5234 0.0000 (  5062 PWs)   bands (ev):

   -11.9971  -7.7729  -6.1299  -5.2723  -0.7490   5.0256   5.9140   6.9668

          k = 0.2485-0.4284 0.0000 (  5056 PWs)   bands (ev):

   -12.3665  -7.3438  -6.5368  -4.8386  -0.0938   4.0837   5.5552   6.4680

          k = 0.2488-0.3334 0.0000 (  5053 PWs)   bands (ev):

   -12.8748  -7.1019  -6.7019  -4.0704   0.9598   3.1066   4.6927   5.5127

          k = 0.2491-0.2384 0.0000 (  5038 PWs)   bands (ev):

   -13.3438  -7.6269  -5.9689  -3.2449   2.1821   2.3296   3.9583   4.7082

          k = 0.3326-0.1912 0.0000 (  5036 PWs)   bands (ev):

   -13.1179  -7.4835  -6.3733  -3.4310   2.1856   2.7651   4.4008   4.7606

          k = 0.3330-0.0962 0.0000 (  5043 PWs)   bands (ev):

   -13.3497  -7.7281  -5.6736  -3.6101   2.3754   3.1681   4.0607   4.7820

          k = 0.3333-0.0012 0.0000 (  5043 PWs)   bands (ev):

   -13.4302  -7.8133  -5.2349  -3.9220   2.2430   3.5427   4.1848   4.6481

          k = 0.3337 0.0938 0.0000 (  5043 PWs)   bands (ev):

   -13.3497  -7.7281  -5.6740  -3.6095   2.3754   3.1677   4.0606   4.7818

          k = 0.3340 0.1888 0.0000 (  5036 PWs)   bands (ev):

   -13.1180  -7.4835  -6.3737  -3.4303   2.1851   2.7650   4.4006   4.7612

          k = 0.3344 0.2838 0.0000 (  5056 PWs)   bands (ev):

   -12.7682  -7.1165  -6.9564  -3.8878   1.2464   3.3988   5.0458   5.1377

          k = 0.3306-0.7612 0.0000 (  5051 PWs)   bands (ev):

   -12.3689  -7.3092  -6.6994  -4.7785   0.5078   4.2437   5.7199   6.3187

          k = 0.3309-0.6662 0.0000 (  5056 PWs)   bands (ev):

   -12.0354  -7.3842  -6.3505  -5.6722   0.0246   5.1275   5.4991   7.1207

          k = 0.3313-0.5712 0.0000 (  5049 PWs)   bands (ev):

   -11.9026  -7.3162  -6.2106  -6.1030  -0.1470   5.2380   5.5462   7.5035

          k = 0.3316-0.4762 0.0000 (  5056 PWs)   bands (ev):

   -12.0353  -7.3840  -6.3505  -5.6726   0.0248   5.1276   5.4989   7.1209

          k = 0.3320-0.3812 0.0000 (  5051 PWs)   bands (ev):

   -12.3688  -7.3089  -6.6994  -4.7789   0.5081   4.2438   5.7199   6.3177

          k = 0.3323-0.2862 0.0000 (  5056 PWs)   bands (ev):

   -12.7681  -7.1164  -6.9560  -3.8884   1.2468   3.3989   5.0459   5.1368

          k = 0.4158-0.2390 0.0000 (  5035 PWs)   bands (ev):

   -12.5713  -7.3427  -7.0182  -3.8215   1.2052   3.9304   4.5677   5.6270

          k = 0.4162-0.1440 0.0000 (  5059 PWs)   bands (ev):

   -12.7768  -7.2116  -6.7838  -4.0997   1.9289   3.4485   4.9628   5.1906

          k = 0.4165-0.0490 0.0000 (  5060 PWs)   bands (ev):

   -12.8947  -7.3220  -6.0957  -4.7612   2.7471   3.1930   4.3837   5.6362

          k = 0.4168 0.0460 0.0000 (  5060 PWs)   bands (ev):

   -12.8947  -7.3221  -6.0961  -4.7607   2.7467   3.1929   4.3838   5.6362

          k = 0.4172 0.1410 0.0000 (  5059 PWs)   bands (ev):

   -12.7768  -7.2116  -6.7842  -4.0990   1.9284   3.4484   4.9627   5.1913

          k = 0.4175 0.2360 0.0000 (  5035 PWs)   bands (ev):

   -12.5714  -7.3431  -7.0182  -3.8208   1.2047   3.9303   4.5685   5.6269

          k = 0.4138-0.8090 0.0000 (  5051 PWs)   bands (ev):

   -12.3392  -7.6001  -6.7937  -4.2383   0.7734   4.5594   5.0455   6.3380

          k = 0.4141-0.7140 0.0000 (  5056 PWs)   bands (ev):

   -12.1535  -7.4735  -6.6014  -5.1278   0.6519   5.0952   5.7510   6.2899

          k = 0.4144-0.6190 0.0000 (  5053 PWs)   bands (ev):

   -12.0586  -6.9593  -6.4930  -6.1083   0.7100   4.9383   5.2024   7.2588

          k = 0.4148-0.5240 0.0000 (  5053 PWs)   bands (ev):

   -12.0586  -6.9589  -6.4930  -6.1087   0.7102   4.9382   5.2024   7.2591

          k = 0.4151-0.4290 0.0000 (  5056 PWs)   bands (ev):

   -12.1534  -7.4732  -6.6014  -5.1284   0.6523   5.0953   5.7506   6.2890

          k = 0.4155-0.3340 0.0000 (  5051 PWs)   bands (ev):

   -12.3390  -7.5998  -6.7936  -4.2389   0.7739   4.5595   5.0446   6.3381

          k =-0.4990 0.2868 0.0000 (  5038 PWs)   bands (ev):

   -12.3210  -7.7434  -6.8238  -3.9511   0.8262   4.4827   4.8334   6.2546

          k =-0.4986 0.3818 0.0000 (  5049 PWs)   bands (ev):

   -12.3443  -7.5435  -6.8355  -4.3062   1.0079   4.6126   5.0291   6.1751

          k =-0.4983 0.4768 0.0000 (  5054 PWs)   bands (ev):

   -12.3890  -6.9915  -6.8585  -5.1295   1.4584   4.3229   5.1656   6.3690

          k =-0.4979 0.5718 0.0000 (  5075 PWs)   bands (ev):

   -12.4105  -6.8699  -6.3829  -5.8586   1.7645   4.2124   4.6294   6.6831

          k =-0.4976 0.6668 0.0000 (  5054 PWs)   bands (ev):

   -12.3890  -6.9919  -6.8585  -5.1289   1.4580   4.3228   5.1658   6.3699

          k =-0.4973 0.7618 0.0000 (  5049 PWs)   bands (ev):

   -12.3444  -7.5438  -6.8355  -4.3055   1.0074   4.6125   5.0300   6.1752

          k =-0.5010-0.2832 0.0000 (  5038 PWs)   bands (ev):

   -12.3211  -7.7438  -6.8238  -3.9504   0.8256   4.4835   4.8332   6.2543

     the Fermi energy is    -1.2493 ev

!    total energy              =     -15.10429279 Ry
     estimated scf accuracy    <          6.4E-10 Ry
     smearing contrib. (-TS)   =      -0.00015404 Ry
     internal energy E=F+TS    =     -15.10413875 Ry

     The total energy is F=E-TS. E is the sum of the following terms:
     one-electron contribution =     -65.62274137 Ry
     hartree contribution      =      34.37222086 Ry
     xc contribution           =      -7.33892981 Ry
     ewald contribution        =      23.48531157 Ry

     convergence has been achieved in   7 iterations

     negative rho (up, down):  3.347E-05 0.000E+00

     Forces acting on atoms (cartesian axes, Ry/au):

     atom    1 type  1   force =    -0.00002079    0.00408853    0.00000000
     atom    2 type  1   force =     0.00002520   -0.00406539    0.00000000
     atom    3 type  2   force =    -0.00000220   -0.00001157    0.00107439
     atom    4 type  2   force =    -0.00000220   -0.00001157   -0.00107439
     The non-local contrib.  to forces
     atom    1 type  1   force =    -0.00130400   -0.35203989    0.00000000
     atom    2 type  1   force =     0.00132512    0.35208110    0.00000000
     atom    3 type  2   force =    -0.00000734    0.00000426   -0.11397686
     atom    4 type  2   force =    -0.00000734    0.00000426    0.11397686
     The ionic contribution  to forces
     atom    1 type  1   force =     0.00243489    0.69536125    0.00000000
     atom    2 type  1   force =    -0.00253035   -0.69527768    0.00000000
     atom    3 type  2   force =     0.00004773   -0.00004178    2.57657827
     atom    4 type  2   force =     0.00004773   -0.00004178   -2.57657827
     The local contribution  to forces
     atom    1 type  1   force =    -0.00118058   -0.34689518    0.00000000
     atom    2 type  1   force =     0.00125958    0.34679544    0.00000000
     atom    3 type  2   force =    -0.00004258    0.00002581   -2.46152980
     atom    4 type  2   force =    -0.00004258    0.00002581    2.46152980
     The core correction contribution to forces
     atom    1 type  1   force =     0.00002890    0.00767260   -0.00000000
     atom    2 type  1   force =    -0.00002911   -0.00767459   -0.00000000
     atom    3 type  2   force =     0.00000000    0.00000000    0.00000000
     atom    4 type  2   force =     0.00000000    0.00000000    0.00000000
     The Hubbard contrib.    to forces
     atom    1 type  1   force =     0.00000000    0.00000000    0.00000000
     atom    2 type  1   force =     0.00000000    0.00000000    0.00000000
     atom    3 type  2   force =     0.00000000    0.00000000    0.00000000
     atom    4 type  2   force =     0.00000000    0.00000000    0.00000000
     The SCF correction term to forces
     atom    1 type  1   force =     0.00000003   -0.00001029    0.00000000
     atom    2 type  1   force =    -0.00000002    0.00001029    0.00000000
     atom    3 type  2   force =     0.00000000    0.00000010    0.00000279
     atom    4 type  2   force =     0.00000000    0.00000010   -0.00000279

     Total force =     0.005963     Total SCF correction =     0.000015

     Writing all to output data dir tmpdir/pwscf.save/
 
     init_run     :     27.90s CPU     28.15s WALL (       1 calls)
     electrons    :     16.69s CPU     20.00s WALL (       1 calls)
     forces       :      0.57s CPU      0.61s WALL (       1 calls)

     Called by init_run:
     wfcinit      :      0.74s CPU      0.84s WALL (       1 calls)
     potinit      :     26.85s CPU     26.94s WALL (       1 calls)
     hinit0       :      0.26s CPU      0.30s WALL (       1 calls)

     Called by electrons:
     c_bands      :     12.83s CPU     15.20s WALL (       7 calls)
     sum_band     :      2.12s CPU      2.61s WALL (       7 calls)
     v_of_rho     :     28.25s CPU     28.72s WALL (       8 calls)
     newd         :      0.18s CPU      0.22s WALL (       8 calls)
     mix_rho      :      0.03s CPU      0.04s WALL (       7 calls)
     vdW_kernel   :     26.52s CPU     26.53s WALL (       1 calls)

     Called by c_bands:
     init_us_2    :      0.23s CPU      0.26s WALL (    1184 calls)
     init_us_2:cp :      0.22s CPU      0.26s WALL (    1184 calls)
     cegterg      :     12.34s CPU     14.63s WALL (     518 calls)

     Called by *egterg:
     cdiaghg      :      0.38s CPU      0.46s WALL (    2411 calls)
     h_psi        :     11.00s CPU     13.00s WALL (    2485 calls)
     s_psi        :      0.17s CPU      0.20s WALL (    2485 calls)
     g_psi        :      0.04s CPU      0.05s WALL (    1893 calls)

     Called by h_psi:
     h_psi:calbec :      0.42s CPU      0.51s WALL (    2485 calls)
     vloc_psi     :     10.27s CPU     12.13s WALL (    2485 calls)
     add_vuspsi   :      0.26s CPU      0.31s WALL (    2485 calls)

     General routines
     calbec       :      0.57s CPU      0.68s WALL (    3299 calls)
     fft          :      0.94s CPU      1.25s WALL (     563 calls)
     ffts         :      0.01s CPU      0.01s WALL (      15 calls)
     fftw         :     10.13s CPU     12.09s WALL (   29974 calls)
     interpolate  :      0.01s CPU      0.02s WALL (       8 calls)
 
     Parallel routines
 
     PWSCF        :     45.33s CPU     49.12s WALL

 
   This run was terminated on:  10:17:58   1Dec2023            

=------------------------------------------------------------------------------=
   JOB DONE.
=------------------------------------------------------------------------------=
