[0] MPI startup(): I_MPI_TCP_NETMASK variable has been removed from the product, its value is ignored


     Program PWSCF v.7.2 starts on 12Mar2024 at 17:28: 0 

     This program is part of the open-source Quantum ESPRESSO suite
     for quantum simulation of materials; please cite
         "P. Giannozzi et al., J. Phys.:Condens. Matter 21 395502 (2009);
         "P. Giannozzi et al., J. Phys.:Condens. Matter 29 465901 (2017);
         "P. Giannozzi et al., J. Chem. Phys. 152 154105 (2020);
          URL http://www.quantum-espresso.org", 
     in publications or presentations arising from this work. More details at
     http://www.quantum-espresso.org/quote

     Parallel version (MPI), running on    16 processors

     MPI processes distributed on     1 nodes
     31561 MiB available memory on the printing compute node when the environment starts
 
     Reading input from espresso.pwi
Warning: card &CELL ignored
Warning: card / ignored

     Current dimensions of program PWSCF are:
     Max number of different atomic species (ntypx) = 10
     Max number of k-points (npk) =  40000
     Max angular momentum in pseudopotentials (lmaxx) =  4
     Message from routine setup:
     using ibrav=0 with symmetry is DISCOURAGED, use correct ibrav instead
 
     R & G space division:  proc/nbgrp/npool/nimage =      16
     Subspace diagonalization in iterative solution of the eigenvalue problem:
     a serial algorithm will be used

 
     Parallelization info
     --------------------
     sticks:   dense  smooth     PW     G-vecs:    dense   smooth      PW
     Min          67      34     10                 7115     2515     444
     Max          68      36     11                 7126     2519     463
     Sum        1085     551    167               113933    40273    7201
 
     Using Slab Decomposition
 


     bravais-lattice index     =            0
     lattice parameter (alat)  =       5.6973  a.u.
     unit-cell volume          =     642.1518 (a.u.)^3
     number of atoms/cell      =            4
     number of atomic types    =            2
     number of electrons       =         8.00
     number of Kohn-Sham states=            8
     kinetic-energy cutoff     =      60.0000  Ry
     charge density cutoff     =     480.0000  Ry
     scf convergence threshold =      1.0E-06
     mixing beta               =       0.7000
     number of iterations used =            8  plain     mixing
     Exchange-correlation=  SLA  PW   PBX  PBC
                           (   1   4   3   4   0   0   0)

     celldm(1)=   5.697334  celldm(2)=   0.000000  celldm(3)=   0.000000
     celldm(4)=   0.000000  celldm(5)=   0.000000  celldm(6)=   0.000000

     crystal axes: (cart. coord. in units of alat)
               a(1) = (   0.999994  -0.003591   0.000000 )  
               a(2) = (   0.503167   0.875437   0.000000 )  
               a(3) = (   0.000000   0.000000   3.958265 )  

     reciprocal axes: (cart. coord. in units 2 pi/alat)
               b(1) = (  0.997946 -0.573581  0.000000 )  
               b(2) = (  0.004094  1.139933  0.000000 )  
               b(3) = (  0.000000  0.000000  0.252636 )  


     PseudoPot. # 1 for B  read from file:
     /home/krojas/QE/pseudo/b_pbe_v1.4.uspp.F.UPF
     MD5 check sum: cc6de2960df11db49a60e589f9ebb39b
     Pseudo is Ultrasoft + core correction, Zval =  3.0
     Generated by new atomic code, or converted to UPF format
     Using radial grid of  781 points,  4 beta functions with: 
                l(1) =   0
                l(2) =   0
                l(3) =   1
                l(4) =   1
     Q(r) pseudized with  8 coefficients,  rinner =    1.100   1.100   1.100


     PseudoPot. # 2 for H  read from file:
     /home/krojas/QE/pseudo/h_pbe_v1.4.uspp.F.UPF
     MD5 check sum: 761ae9a214b05c3daf00ab9f6b793d6f
     Pseudo is Ultrasoft, Zval =  1.0
     Generated by new atomic code, or converted to UPF format
     Using radial grid of  615 points,  2 beta functions with: 
                l(1) =   0
                l(2) =   0
     Q(r) pseudized with  8 coefficients,  rinner =    0.700

     atomic species   valence    mass     pseudopotential
        B              3.00    10.81000     B ( 1.00)
        H              1.00     1.00800     H ( 1.00)

      2 Sym. Ops. (no inversion) found



   Cartesian axes

     site n.     atom                  positions (alat units)
         1           B   tau(   1) = (   0.0000000   0.0000000   1.9791325  )
         2           B   tau(   2) = (   0.4976488   0.2715580   1.9791325  )
         3           H   tau(   3) = (   0.5020846   0.5735104   2.2998349  )
         4           H   tau(   4) = (   0.5020846   0.5735104   1.6584302  )

     number of k points=    74  Gaussian smearing, width (Ry)=  0.0100
                       cart. coord. in units 2pi/alat
        k(    1) = (   0.0000000   0.0000000   0.0000000), wk =   0.0138889
        k(    2) = (   0.0003412   0.0949944   0.0000000), wk =   0.0277778
        k(    3) = (   0.0006823   0.1899889   0.0000000), wk =   0.0277778
        k(    4) = (   0.0010235   0.2849833   0.0000000), wk =   0.0277778
        k(    5) = (   0.0013646   0.3799777   0.0000000), wk =   0.0277778
        k(    6) = (   0.0017058   0.4749722   0.0000000), wk =   0.0277778
        k(    7) = (  -0.0020470  -0.5699666   0.0000000), wk =   0.0138889
        k(    8) = (   0.0831622  -0.0477984   0.0000000), wk =   0.0277778
        k(    9) = (   0.0835034   0.0471960   0.0000000), wk =   0.0277778
        k(   10) = (   0.0838445   0.1421905   0.0000000), wk =   0.0277778
        k(   11) = (   0.0841857   0.2371849   0.0000000), wk =   0.0277778
        k(   12) = (   0.0845269   0.3321793   0.0000000), wk =   0.0277778
        k(   13) = (   0.0848680   0.4271738   0.0000000), wk =   0.0277778
        k(   14) = (   0.0811152  -0.6177650   0.0000000), wk =   0.0277778
        k(   15) = (   0.0814564  -0.5227706   0.0000000), wk =   0.0277778
        k(   16) = (   0.0817976  -0.4277762   0.0000000), wk =   0.0277778
        k(   17) = (   0.0821387  -0.3327817   0.0000000), wk =   0.0277778
        k(   18) = (   0.0824799  -0.2377873   0.0000000), wk =   0.0277778
        k(   19) = (   0.0828210  -0.1427928   0.0000000), wk =   0.0277778
        k(   20) = (   0.1663244  -0.0955968   0.0000000), wk =   0.0277778
        k(   21) = (   0.1666656  -0.0006024   0.0000000), wk =   0.0277778
        k(   22) = (   0.1670067   0.0943921   0.0000000), wk =   0.0277778
        k(   23) = (   0.1673479   0.1893865   0.0000000), wk =   0.0277778
        k(   24) = (   0.1676891   0.2843809   0.0000000), wk =   0.0277778
        k(   25) = (   0.1680302   0.3793754   0.0000000), wk =   0.0277778
        k(   26) = (   0.1642774  -0.6655634   0.0000000), wk =   0.0277778
        k(   27) = (   0.1646186  -0.5705690   0.0000000), wk =   0.0277778
        k(   28) = (   0.1649598  -0.4755746   0.0000000), wk =   0.0277778
        k(   29) = (   0.1653009  -0.3805801   0.0000000), wk =   0.0277778
        k(   30) = (   0.1656421  -0.2855857   0.0000000), wk =   0.0277778
        k(   31) = (   0.1659833  -0.1905913   0.0000000), wk =   0.0277778
        k(   32) = (   0.2494866  -0.1433952   0.0000000), wk =   0.0277778
        k(   33) = (   0.2498278  -0.0484008   0.0000000), wk =   0.0277778
        k(   34) = (   0.2501689   0.0465936   0.0000000), wk =   0.0277778
        k(   35) = (   0.2505101   0.1415881   0.0000000), wk =   0.0277778
        k(   36) = (   0.2508513   0.2365825   0.0000000), wk =   0.0277778
        k(   37) = (   0.2511924   0.3315769   0.0000000), wk =   0.0277778
        k(   38) = (   0.2474397  -0.7133618   0.0000000), wk =   0.0277778
        k(   39) = (   0.2477808  -0.6183674   0.0000000), wk =   0.0277778
        k(   40) = (   0.2481220  -0.5233730   0.0000000), wk =   0.0277778
        k(   41) = (   0.2484631  -0.4283785   0.0000000), wk =   0.0277778
        k(   42) = (   0.2488043  -0.3333841   0.0000000), wk =   0.0277778
        k(   43) = (   0.2491455  -0.2383897   0.0000000), wk =   0.0277778
        k(   44) = (   0.3326488  -0.1911936   0.0000000), wk =   0.0277778
        k(   45) = (   0.3329900  -0.0961992   0.0000000), wk =   0.0277778
        k(   46) = (   0.3333312  -0.0012048   0.0000000), wk =   0.0277778
        k(   47) = (   0.3336723   0.0937897   0.0000000), wk =   0.0277778
        k(   48) = (   0.3340135   0.1887841   0.0000000), wk =   0.0277778
        k(   49) = (   0.3343546   0.2837785   0.0000000), wk =   0.0277778
        k(   50) = (   0.3306019  -0.7611603   0.0000000), wk =   0.0277778
        k(   51) = (   0.3309430  -0.6661658   0.0000000), wk =   0.0277778
        k(   52) = (   0.3312842  -0.5711714   0.0000000), wk =   0.0277778
        k(   53) = (   0.3316253  -0.4761769   0.0000000), wk =   0.0277778
        k(   54) = (   0.3319665  -0.3811825   0.0000000), wk =   0.0277778
        k(   55) = (   0.3323077  -0.2861881   0.0000000), wk =   0.0277778
        k(   56) = (   0.4158110  -0.2389921   0.0000000), wk =   0.0277778
        k(   57) = (   0.4161522  -0.1439976   0.0000000), wk =   0.0277778
        k(   58) = (   0.4164934  -0.0490032   0.0000000), wk =   0.0277778
        k(   59) = (   0.4168345   0.0459913   0.0000000), wk =   0.0277778
        k(   60) = (   0.4171757   0.1409857   0.0000000), wk =   0.0277778
        k(   61) = (   0.4175169   0.2359801   0.0000000), wk =   0.0277778
        k(   62) = (   0.4137641  -0.8089587   0.0000000), wk =   0.0277778
        k(   63) = (   0.4141052  -0.7139642   0.0000000), wk =   0.0277778
        k(   64) = (   0.4144464  -0.6189698   0.0000000), wk =   0.0277778
        k(   65) = (   0.4147876  -0.5239754   0.0000000), wk =   0.0277778
        k(   66) = (   0.4151287  -0.4289809   0.0000000), wk =   0.0277778
        k(   67) = (   0.4154699  -0.3339865   0.0000000), wk =   0.0277778
        k(   68) = (  -0.4989732   0.2867905   0.0000000), wk =   0.0138889
        k(   69) = (  -0.4986321   0.3817849   0.0000000), wk =   0.0277778
        k(   70) = (  -0.4982909   0.4767793   0.0000000), wk =   0.0277778
        k(   71) = (  -0.4979498   0.5717738   0.0000000), wk =   0.0277778
        k(   72) = (  -0.4976086   0.6667682   0.0000000), wk =   0.0277778
        k(   73) = (  -0.4972674   0.7617626   0.0000000), wk =   0.0277778
        k(   74) = (  -0.5010202  -0.2831762   0.0000000), wk =   0.0138889

     Dense  grid:   113933 G-vectors     FFT dimensions: (  40,  45, 160)

     Smooth grid:    40273 G-vectors     FFT dimensions: (  30,  30, 120)

     Estimated max dynamical RAM per process >      13.53 MB

     Estimated total dynamical RAM >     216.40 MB

     Initial potential from superposition of free atoms

     starting charge       7.9994, renormalised to       8.0000

     negative rho (up, down):  1.264E-05 0.000E+00
     Starting wfcs are   10 randomized atomic wfcs

     total cpu time spent up to now is        0.5 secs

     Self-consistent Calculation

     iteration #  1     ecut=    60.00 Ry     beta= 0.70
     Davidson diagonalization with overlap
     ethr =  1.00E-02,  avg # of iterations =  3.8

     negative rho (up, down):  1.227E-05 0.000E+00

     total cpu time spent up to now is        1.2 secs

     total energy              =     -15.01290507 Ry
     estimated scf accuracy    <       0.32452788 Ry

     iteration #  2     ecut=    60.00 Ry     beta= 0.70
     Davidson diagonalization with overlap
     ethr =  4.06E-03,  avg # of iterations =  3.5

     negative rho (up, down):  2.160E-05 0.000E+00

     total cpu time spent up to now is        1.9 secs

     total energy              =     -15.06600887 Ry
     estimated scf accuracy    <       0.01760370 Ry

     iteration #  3     ecut=    60.00 Ry     beta= 0.70
     Davidson diagonalization with overlap
     ethr =  2.20E-04,  avg # of iterations =  5.4

     negative rho (up, down):  3.136E-05 0.000E+00

     total cpu time spent up to now is        2.6 secs

     total energy              =     -15.06899744 Ry
     estimated scf accuracy    <       0.00052488 Ry

     iteration #  4     ecut=    60.00 Ry     beta= 0.70
     Davidson diagonalization with overlap
     c_bands:  1 eigenvalues not converged
     ethr =  6.56E-06,  avg # of iterations =  6.0

     negative rho (up, down):  3.358E-05 0.000E+00

     total cpu time spent up to now is        3.4 secs

     total energy              =     -15.06907858 Ry
     estimated scf accuracy    <       0.00000513 Ry

     iteration #  5     ecut=    60.00 Ry     beta= 0.70
     Davidson diagonalization with overlap
     ethr =  6.41E-08,  avg # of iterations =  3.1

     negative rho (up, down):  3.422E-05 0.000E+00

     total cpu time spent up to now is        4.0 secs

     End of self-consistent calculation

          k = 0.0000 0.0000 0.0000 (  5017 PWs)   bands (ev):

   -14.4662  -8.7459  -2.9777  -0.5118   0.9716   2.3892   3.0053   5.6508

          k = 0.0003 0.0950 0.0000 (  4979 PWs)   bands (ev):

   -14.3673  -8.6279  -3.3698  -0.7643   1.0933   2.5308   3.1304   5.7755

          k = 0.0007 0.1900 0.0000 (  4988 PWs)   bands (ev):

   -14.0755  -8.2793  -4.3689  -1.3410   1.4728   2.9327   3.5149   4.0464

          k = 0.0010 0.2850 0.0000 (  5020 PWs)   bands (ev):

   -13.6088  -7.7195  -5.6466  -1.9652   2.0033   2.1089   3.7320   4.1317

          k = 0.0014 0.3800 0.0000 (  5038 PWs)   bands (ev):

   -13.0135  -6.9990  -6.9339  -2.4772   0.2658   2.9398   4.7155   4.7310

          k = 0.0017 0.4750 0.0000 (  5038 PWs)   bands (ev):

   -12.4139  -7.9861  -6.2610  -2.8043  -1.1014   3.6883   5.1452   5.9771

          k =-0.0020-0.5700 0.0000 (  5036 PWs)   bands (ev):

   -12.1219  -8.4345  -5.8932  -2.9161  -1.6813   3.9107   5.9263   6.5376

          k = 0.0832-0.0478 0.0000 (  5007 PWs)   bands (ev):

   -14.3674  -8.6454  -3.2511  -0.9173   1.1075   2.5308   3.1459   5.6836

          k = 0.0835 0.0472 0.0000 (  5007 PWs)   bands (ev):

   -14.3674  -8.6448  -3.2681  -0.8925   1.1072   2.5311   3.1458   5.7581

          k = 0.0838 0.1422 0.0000 (  5003 PWs)   bands (ev):

   -14.1723  -8.4125  -3.9742  -1.2946   1.3581   2.8066   3.4025   4.9102

          k = 0.0842 0.2372 0.0000 (  5010 PWs)   bands (ev):

   -13.7930  -7.9606  -5.0787  -1.9482   1.8735   2.8239   3.5191   3.9237

          k = 0.0845 0.3322 0.0000 (  5029 PWs)   bands (ev):

   -13.2591  -7.3219  -6.3186  -2.5837   1.0981   2.6338   4.2916   4.6529

          k = 0.0849 0.4272 0.0000 (  5030 PWs)   bands (ev):

   -12.6469  -7.4708  -6.5827  -3.0504  -0.4349   3.5389   5.2566   5.4078

          k = 0.0811-0.6178 0.0000 (  5055 PWs)   bands (ev):

   -12.1605  -8.2455  -5.9865  -3.2936  -1.4349   4.1930   5.8271   6.7312

          k = 0.0815-0.5228 0.0000 (  5055 PWs)   bands (ev):

   -12.1607  -8.2427  -5.9891  -3.2973  -1.4292   4.1882   5.8355   7.0360

          k = 0.0818-0.4278 0.0000 (  5030 PWs)   bands (ev):

   -12.6472  -7.4618  -6.5874  -3.0624  -0.4207   3.5339   5.2522   5.4043

          k = 0.0821-0.3328 0.0000 (  5029 PWs)   bands (ev):

   -13.2592  -7.3262  -6.3015  -2.6070   1.1182   2.6316   4.2898   4.6474

          k = 0.0825-0.2378 0.0000 (  5010 PWs)   bands (ev):

   -13.7929  -7.9638  -5.0516  -1.9859   1.8728   2.8442   3.5235   3.9215

          k = 0.0828-0.1428 0.0000 (  5003 PWs)   bands (ev):

   -14.1722  -8.4145  -3.9419  -1.3410   1.3584   2.8059   3.4024   4.9404

          k = 0.1663-0.0956 0.0000 (  5007 PWs)   bands (ev):

   -14.0770  -8.3541  -3.9997  -1.8166   1.5206   2.9436   3.5714   5.4165

          k = 0.1667-0.0006 0.0000 (  4991 PWs)   bands (ev):

   -14.1728  -8.4644  -3.6663  -1.6882   1.3931   2.8131   3.4416   6.0368

          k = 0.1670 0.0944 0.0000 (  5007 PWs)   bands (ev):

   -14.0771  -8.3514  -4.0504  -1.7470   1.5199   2.9447   3.5711   5.3625

          k = 0.1673 0.1894 0.0000 (  5031 PWs)   bands (ev):

   -13.7955  -8.0216  -4.8765  -2.2049   1.9066   3.1728   3.8295   3.9656

          k = 0.1677 0.2844 0.0000 (  5037 PWs)   bands (ev):

   -13.3486  -7.4987  -5.8736  -2.9525   1.8526   2.5564   4.1711   4.6315

          k = 0.1680 0.3794 0.0000 (  5046 PWs)   bands (ev):

   -12.7870  -6.9007  -6.8411  -3.6452   0.3582   3.4354   5.1113   5.5086

          k = 0.1643-0.6656 0.0000 (  5071 PWs)   bands (ev):

   -12.2378  -7.7667  -6.1972  -4.0954  -0.8058   4.4066   6.2273   6.2867

          k = 0.1646-0.5706 0.0000 (  5067 PWs)   bands (ev):

   -11.9805  -8.1332  -5.8977  -4.2530  -1.2772   4.9260   6.9256   7.0586

          k = 0.1650-0.4756 0.0000 (  5071 PWs)   bands (ev):

   -12.2385  -7.7522  -6.2053  -4.1130  -0.7842   4.3993   6.2140   6.2901

          k = 0.1653-0.3806 0.0000 (  5048 PWs)   bands (ev):

   -12.7875  -6.8702  -6.8506  -3.6838   0.3943   3.4317   5.1049   5.5011

          k = 0.1656-0.2856 0.0000 (  5037 PWs)   bands (ev):

   -13.3486  -7.5066  -5.8259  -3.0151   1.8976   2.5550   4.1696   4.6270

          k = 0.1660-0.1906 0.0000 (  5031 PWs)   bands (ev):

   -13.7954  -8.0270  -4.8172  -2.2856   1.9067   3.1855   3.8693   3.9640

          k = 0.2495-0.1434 0.0000 (  5031 PWs)   bands (ev):

   -13.6179  -7.9070  -5.0765  -2.7117   2.2111   3.3718   4.1770   4.2769

          k = 0.2498-0.0484 0.0000 (  5026 PWs)   bands (ev):

   -13.7976  -8.1071  -4.4639  -2.7227   1.9520   3.3524   4.0187   5.2212

          k = 0.2502 0.0466 0.0000 (  5026 PWs)   bands (ev):

   -13.7977  -8.1049  -4.5039  -2.6722   1.9515   3.3535   4.0182   5.1722

          k = 0.2505 0.1416 0.0000 (  5031 PWs)   bands (ev):

   -13.6179  -7.9005  -5.1467  -2.6170   2.2101   3.3517   4.1259   4.2777

          k = 0.2509 0.2366 0.0000 (  5038 PWs)   bands (ev):

   -13.2732  -7.5114  -5.9172  -3.0938   2.2649   2.7266   4.3670   4.7962

          k = 0.2512 0.3316 0.0000 (  5053 PWs)   bands (ev):

   -12.8018  -6.9828  -6.6491  -3.9412   1.0129   3.4933   5.1298   5.6043

          k = 0.2474-0.7134 0.0000 (  5056 PWs)   bands (ev):

   -12.2902  -7.2849  -6.4142  -4.7324  -0.0445   4.4443   5.9640   6.5854

          k = 0.2478-0.6184 0.0000 (  5062 PWs)   bands (ev):

   -11.9183  -7.7029  -6.0071  -5.1874  -0.6926   5.3155   6.1980   7.2700

          k = 0.2481-0.5234 0.0000 (  5062 PWs)   bands (ev):

   -11.9193  -7.6870  -6.0136  -5.2052  -0.6749   5.3100   6.1811   7.2989

          k = 0.2485-0.4284 0.0000 (  5056 PWs)   bands (ev):

   -12.2916  -7.2410  -6.4279  -4.7837   0.0016   4.4396   5.9391   6.5797

          k = 0.2488-0.3334 0.0000 (  5053 PWs)   bands (ev):

   -12.8025  -6.9965  -6.5867  -4.0187   1.0755   3.4912   5.1225   5.5949

          k = 0.2491-0.2384 0.0000 (  5038 PWs)   bands (ev):

   -13.2734  -7.5220  -5.8462  -3.1882   2.3307   2.7265   4.3709   4.7877

          k = 0.3326-0.1912 0.0000 (  5036 PWs)   bands (ev):

   -13.0458  -7.3800  -6.2579  -3.3697   2.3383   3.1611   4.7659   4.8202

          k = 0.3330-0.0962 0.0000 (  5043 PWs)   bands (ev):

   -13.2786  -7.6223  -5.5573  -3.5438   2.7786   3.3829   4.4070   4.8729

          k = 0.3333-0.0012 0.0000 (  5043 PWs)   bands (ev):

   -13.3594  -7.7045  -5.1476  -3.8197   2.6473   4.0025   4.2376   4.7401

          k = 0.3337 0.0938 0.0000 (  5043 PWs)   bands (ev):

   -13.2784  -7.6160  -5.6208  -3.4634   2.7773   3.3328   4.3881   4.8714

          k = 0.3340 0.1888 0.0000 (  5036 PWs)   bands (ev):

   -13.0453  -7.3678  -6.3283  -3.2732   2.2626   3.1597   4.8125   4.8181

          k = 0.3344 0.2838 0.0000 (  5056 PWs)   bands (ev):

   -12.6931  -6.9970  -6.9142  -3.7407   1.2998   3.7808   5.2119   5.4753

          k = 0.3306-0.7612 0.0000 (  5051 PWs)   bands (ev):

   -12.2908  -7.2677  -6.5772  -4.6497   0.5508   4.6054   6.1085   6.4274

          k = 0.3309-0.6662 0.0000 (  5056 PWs)   bands (ev):

   -11.9549  -7.3358  -6.2285  -5.5645   0.0698   5.4381   5.7628   7.4253

          k = 0.3313-0.5712 0.0000 (  5049 PWs)   bands (ev):

   -11.8221  -7.2367  -6.0939  -6.0326  -0.0840   5.4706   5.8068   7.8479

          k = 0.3316-0.4762 0.0000 (  5056 PWs)   bands (ev):

   -11.9570  -7.2781  -6.2414  -5.6276   0.1153   5.4328   5.7272   7.4489

          k = 0.3320-0.3812 0.0000 (  5051 PWs)   bands (ev):

   -12.2931  -7.1988  -6.5955  -4.7320   0.6242   4.6017   6.0752   6.3507

          k = 0.3323-0.2862 0.0000 (  5056 PWs)   bands (ev):

   -12.6944  -7.0140  -6.8438  -3.8336   1.3817   3.7797   5.1506   5.4728

          k = 0.4158-0.2390 0.0000 (  5035 PWs)   bands (ev):

   -12.4960  -7.2381  -6.9173  -3.7597   1.3463   4.2884   4.5897   6.0627

          k = 0.4162-0.1440 0.0000 (  5059 PWs)   bands (ev):

   -12.7024  -7.1082  -6.6761  -4.0389   2.0637   3.8395   5.1986   5.3939

          k = 0.4165-0.0490 0.0000 (  5060 PWs)   bands (ev):

   -12.8207  -7.2148  -5.9925  -4.6936   2.8404   3.5887   4.8015   5.7256

          k = 0.4168 0.0460 0.0000 (  5060 PWs)   bands (ev):

   -12.8204  -7.2104  -6.0427  -4.6364   2.7991   3.5880   4.8087   5.7248

          k = 0.4172 0.1410 0.0000 (  5059 PWs)   bands (ev):

   -12.7013  -7.0955  -6.7420  -3.9536   1.9872   3.8373   5.2495   5.3905

          k = 0.4175 0.2360 0.0000 (  5035 PWs)   bands (ev):

   -12.4938  -7.3049  -6.8983  -3.6678   1.2574   4.2907   4.6335   6.0597

          k = 0.4138-0.8090 0.0000 (  5051 PWs)   bands (ev):

   -12.2593  -7.5642  -6.6716  -4.0942   0.8184   4.8680   5.1444   6.7401

          k = 0.4141-0.7140 0.0000 (  5056 PWs)   bands (ev):

   -12.0723  -7.4375  -6.4802  -4.9991   0.6924   5.4060   6.0274   6.3725

          k = 0.4144-0.6190 0.0000 (  5053 PWs)   bands (ev):

   -11.9778  -6.9190  -6.3763  -5.9936   0.7585   5.1947   5.5160   7.6003

          k = 0.4148-0.5240 0.0000 (  5053 PWs)   bands (ev):

   -11.9790  -6.8492  -6.3830  -6.0669   0.7892   5.1727   5.5152   7.6079

          k = 0.4151-0.4290 0.0000 (  5056 PWs)   bands (ev):

   -12.0753  -7.3685  -6.4976  -5.0794   0.7660   5.4010   5.9781   6.3165

          k = 0.4155-0.3340 0.0000 (  5051 PWs)   bands (ev):

   -12.2624  -7.4966  -6.6930  -4.1821   0.9081   4.8437   5.1161   6.7194

          k =-0.4990 0.2868 0.0000 (  5038 PWs)   bands (ev):

   -12.2440  -7.6432  -6.7242  -3.8888   0.9668   4.4820   5.1608   6.6947

          k =-0.4986 0.3818 0.0000 (  5049 PWs)   bands (ev):

   -12.2672  -7.4420  -6.7343  -4.2473   1.1414   4.9607   5.0378   6.5642

          k =-0.4983 0.4768 0.0000 (  5054 PWs)   bands (ev):

   -12.3119  -6.8870  -6.7531  -5.0755   1.5650   4.6923   5.4768   6.3962

          k =-0.4979 0.5718 0.0000 (  5075 PWs)   bands (ev):

   -12.3329  -6.7590  -6.3131  -5.7675   1.8236   4.5863   4.9421   6.7893

          k =-0.4976 0.6668 0.0000 (  5054 PWs)   bands (ev):

   -12.3103  -6.9526  -6.7421  -4.9998   1.5024   4.6911   5.5064   6.4514

          k =-0.4973 0.7618 0.0000 (  5049 PWs)   bands (ev):

   -12.2644  -7.5079  -6.7150  -4.1619   1.0540   4.9616   5.0855   6.5760

          k =-0.5010-0.2832 0.0000 (  5038 PWs)   bands (ev):

   -12.2405  -7.7090  -6.7017  -3.7990   0.8731   4.5286   5.1583   6.6855

     the Fermi energy is    -1.1626 ev

!    total energy              =     -15.06908142 Ry
     estimated scf accuracy    <       0.00000029 Ry
     smearing contrib. (-TS)   =      -0.00016899 Ry
     internal energy E=F+TS    =     -15.06891243 Ry

     The total energy is F=E-TS. E is the sum of the following terms:
     one-electron contribution =     -65.66845466 Ry
     hartree contribution      =      34.41473577 Ry
     xc contribution           =      -7.30060480 Ry
     ewald contribution        =      23.48541126 Ry

     convergence has been achieved in   5 iterations

     negative rho (up, down):  3.422E-05 0.000E+00

     Forces acting on atoms (cartesian axes, Ry/au):

     atom    1 type  1   force =    -0.00781626   -0.00063465    0.00000000
     atom    2 type  1   force =     0.00821455    0.00068523    0.00000000
     atom    3 type  2   force =    -0.00019915   -0.00002529   -0.00005157
     atom    4 type  2   force =    -0.00019915   -0.00002529    0.00005157
     The non-local contrib.  to forces
     atom    1 type  1   force =    -0.01235912   -0.34479573    0.00000000
     atom    2 type  1   force =     0.01420885    0.34488340    0.00000000
     atom    3 type  2   force =    -0.00067993    0.00001542   -0.11090940
     atom    4 type  2   force =    -0.00067993    0.00001542    0.11090940
     The ionic contribution  to forces
     atom    1 type  1   force =    -0.02198518    0.69509060    0.00000000
     atom    2 type  1   force =     0.01308402   -0.69481460    0.00000000
     atom    3 type  2   force =     0.00445058   -0.00013800    2.57649362
     atom    4 type  2   force =     0.00445058   -0.00013800   -2.57649362
     The local contribution  to forces
     atom    1 type  1   force =     0.02605937   -0.35826571    0.00000000
     atom    2 type  1   force =    -0.01860103    0.35795714    0.00000000
     atom    3 type  2   force =    -0.00396936    0.00009861   -2.46559711
     atom    4 type  2   force =    -0.00396936    0.00009861    2.46559711
     The core correction contribution to forces
     atom    1 type  1   force =     0.00046142    0.00714462   -0.00000000
     atom    2 type  1   force =    -0.00046854   -0.00714889   -0.00000000
     atom    3 type  2   force =     0.00000000    0.00000000    0.00000000
     atom    4 type  2   force =     0.00000000    0.00000000    0.00000000
     The Hubbard contrib.    to forces
     atom    1 type  1   force =     0.00000000    0.00000000    0.00000000
     atom    2 type  1   force =     0.00000000    0.00000000    0.00000000
     atom    3 type  2   force =     0.00000000    0.00000000    0.00000000
     atom    4 type  2   force =     0.00000000    0.00000000    0.00000000
     The SCF correction term to forces
     atom    1 type  1   force =     0.00000778    0.00019180   -0.00000000
     atom    2 type  1   force =    -0.00000821   -0.00019159   -0.00000000
     atom    3 type  2   force =     0.00000010   -0.00000110   -0.00003869
     atom    4 type  2   force =     0.00000010   -0.00000110    0.00003869

     Total force =     0.011381     Total SCF correction =     0.000277

     Writing all to output data dir ./TMPDIR/pwscf.save/
 
     init_run     :      0.41s CPU      0.45s WALL (       1 calls)
     electrons    :      3.31s CPU      3.50s WALL (       1 calls)
     forces       :      0.16s CPU      0.16s WALL (       1 calls)

     Called by init_run:
     wfcinit      :      0.20s CPU      0.22s WALL (       1 calls)
     potinit      :      0.07s CPU      0.07s WALL (       1 calls)
     hinit0       :      0.12s CPU      0.12s WALL (       1 calls)

     Called by electrons:
     c_bands      :      2.79s CPU      2.89s WALL (       5 calls)
     sum_band     :      0.42s CPU      0.44s WALL (       5 calls)
     v_of_rho     :      0.06s CPU      0.06s WALL (       6 calls)
     newd         :      0.03s CPU      0.04s WALL (       6 calls)
     mix_rho      :      0.00s CPU      0.00s WALL (       5 calls)

     Called by c_bands:
     init_us_2    :      0.07s CPU      0.07s WALL (     888 calls)
     init_us_2:cp :      0.07s CPU      0.07s WALL (     888 calls)
     cegterg      :      2.67s CPU      2.77s WALL (     370 calls)

     Called by *egterg:
     cdiaghg      :      0.20s CPU      0.21s WALL (    1981 calls)
     h_psi        :      2.27s CPU      2.38s WALL (    2055 calls)
     s_psi        :      0.05s CPU      0.05s WALL (    2055 calls)
     g_psi        :      0.02s CPU      0.02s WALL (    1611 calls)

     Called by h_psi:
     h_psi:calbec :      0.11s CPU      0.11s WALL (    2055 calls)
     vloc_psi     :      2.09s CPU      2.19s WALL (    2055 calls)
     add_vuspsi   :      0.05s CPU      0.06s WALL (    2055 calls)

     General routines
     calbec       :      0.14s CPU      0.14s WALL (    2721 calls)
     fft          :      0.08s CPU      0.08s WALL (      87 calls)
     ffts         :      0.00s CPU      0.00s WALL (      11 calls)
     fftw         :      2.09s CPU      2.18s WALL (   23104 calls)
     interpolate  :      0.02s CPU      0.02s WALL (       6 calls)
 
     Parallel routines
 
     PWSCF        :      4.04s CPU      5.15s WALL

 
   This run was terminated on:  17:28: 5  12Mar2024            

=------------------------------------------------------------------------------=
   JOB DONE.
=------------------------------------------------------------------------------=
