
     Program PWSCF v.7.2 starts on  1Dec2023 at 10:31: 5 

     This program is part of the open-source Quantum ESPRESSO suite
     for quantum simulation of materials; please cite
         "P. Giannozzi et al., J. Phys.:Condens. Matter 21 395502 (2009);
         "P. Giannozzi et al., J. Phys.:Condens. Matter 29 465901 (2017);
         "P. Giannozzi et al., J. Chem. Phys. 152 154105 (2020);
          URL http://www.quantum-espresso.org", 
     in publications or presentations arising from this work. More details at
     http://www.quantum-espresso.org/quote

     Parallel version (MPI), running on     4 processors

     MPI processes distributed on     1 nodes
     12478 MiB available memory on the printing compute node when the environment starts
 
     Reading input from espresso.pwi
Warning: card &CELL ignored
Warning: card / ignored

     Current dimensions of program PWSCF are:
     Max number of different atomic species (ntypx) = 10
     Max number of k-points (npk) =  40000
     Max angular momentum in pseudopotentials (lmaxx) =  4

     IMPORTANT: XC functional enforced from input :
     Exchange-correlation= VDW-DF2-B86R
                           (   1   4  26   0   2   0   0)
     Any further DFT definition will be discarded
     Please, verify this is what you really want

 
     R & G space division:  proc/nbgrp/npool/nimage =       4
     Subspace diagonalization in iterative solution of the eigenvalue problem:
     a serial algorithm will be used

 
     Parallelization info
     --------------------
     sticks:   dense  smooth     PW     G-vecs:    dense   smooth      PW
     Min         271     137     41                28481    10067    1796
     Max         272     139     44                28485    10069    1803
     Sum        1085     551    167               113933    40273    7201
 
     Using Slab Decomposition
 


     bravais-lattice index     =            0
     lattice parameter (alat)  =       5.6973  a.u.
     unit-cell volume          =     642.1518 (a.u.)^3
     number of atoms/cell      =            4
     number of atomic types    =            2
     number of electrons       =         8.00
     number of Kohn-Sham states=            8
     kinetic-energy cutoff     =      60.0000  Ry
     charge density cutoff     =     480.0000  Ry
     scf convergence threshold =      1.0E-09
     mixing beta               =       0.7000
     number of iterations used =            8  plain     mixing
     Exchange-correlation= VDW-DF2-B86R
                           (   1   4  26   0   2   0   0)

     celldm(1)=   5.697334  celldm(2)=   0.000000  celldm(3)=   0.000000
     celldm(4)=   0.000000  celldm(5)=   0.000000  celldm(6)=   0.000000

     crystal axes: (cart. coord. in units of alat)
               a(1) = (   0.999994  -0.003591   0.000000 )  
               a(2) = (   0.503167   0.875437   0.000000 )  
               a(3) = (   0.000000   0.000000   3.958265 )  

     reciprocal axes: (cart. coord. in units 2 pi/alat)
               b(1) = (  0.997946 -0.573581  0.000000 )  
               b(2) = (  0.004094  1.139933  0.000000 )  
               b(3) = (  0.000000  0.000000  0.252636 )  


     PseudoPot. # 1 for B  read from file:
     /home/krojas/github_files/MatSciToolKit/tutorial/example_ase_vib_1/b_pbe_v1.4.uspp.F.UPF
     MD5 check sum: cc6de2960df11db49a60e589f9ebb39b
     Pseudo is Ultrasoft + core correction, Zval =  3.0
     Generated by new atomic code, or converted to UPF format
     Using radial grid of  781 points,  4 beta functions with: 
                l(1) =   0
                l(2) =   0
                l(3) =   1
                l(4) =   1
     Q(r) pseudized with  8 coefficients,  rinner =    1.100   1.100   1.100


     PseudoPot. # 2 for H  read from file:
     /home/krojas/github_files/MatSciToolKit/tutorial/example_ase_vib_1/h_pbe_v1.4.uspp.F.UPF
     MD5 check sum: 761ae9a214b05c3daf00ab9f6b793d6f
     Pseudo is Ultrasoft, Zval =  1.0
     Generated by new atomic code, or converted to UPF format
     Using radial grid of  615 points,  2 beta functions with: 
                l(1) =   0
                l(2) =   0
     Q(r) pseudized with  8 coefficients,  rinner =    0.700

     atomic species   valence    mass     pseudopotential
        B              3.00    10.81000     B ( 1.00)
        H              1.00     1.00800     H ( 1.00)

     No symmetry found



   Cartesian axes

     site n.     atom                  positions (alat units)
         1           B   tau(   1) = (   0.0000000   0.0000000   1.9791325  )
         2           B   tau(   2) = (   0.5009657   0.2715580   1.9791325  )
         3           H   tau(   3) = (   0.5020846   0.5735104   2.2965180  )
         4           H   tau(   4) = (   0.5020846   0.5735104   1.6584302  )

     number of k points=    74  Gaussian smearing, width (Ry)=  0.0100
                       cart. coord. in units 2pi/alat
        k(    1) = (   0.0000000   0.0000000   0.0000000), wk =   0.0138889
        k(    2) = (   0.0003412   0.0949944   0.0000000), wk =   0.0277778
        k(    3) = (   0.0006823   0.1899889   0.0000000), wk =   0.0277778
        k(    4) = (   0.0010235   0.2849833   0.0000000), wk =   0.0277778
        k(    5) = (   0.0013646   0.3799777   0.0000000), wk =   0.0277778
        k(    6) = (   0.0017058   0.4749722   0.0000000), wk =   0.0277778
        k(    7) = (  -0.0020470  -0.5699666   0.0000000), wk =   0.0138889
        k(    8) = (   0.0831622  -0.0477984   0.0000000), wk =   0.0277778
        k(    9) = (   0.0835034   0.0471960   0.0000000), wk =   0.0277778
        k(   10) = (   0.0838445   0.1421905   0.0000000), wk =   0.0277778
        k(   11) = (   0.0841857   0.2371849   0.0000000), wk =   0.0277778
        k(   12) = (   0.0845269   0.3321793   0.0000000), wk =   0.0277778
        k(   13) = (   0.0848680   0.4271738   0.0000000), wk =   0.0277778
        k(   14) = (   0.0811152  -0.6177650   0.0000000), wk =   0.0277778
        k(   15) = (   0.0814564  -0.5227706   0.0000000), wk =   0.0277778
        k(   16) = (   0.0817976  -0.4277762   0.0000000), wk =   0.0277778
        k(   17) = (   0.0821387  -0.3327817   0.0000000), wk =   0.0277778
        k(   18) = (   0.0824799  -0.2377873   0.0000000), wk =   0.0277778
        k(   19) = (   0.0828210  -0.1427928   0.0000000), wk =   0.0277778
        k(   20) = (   0.1663244  -0.0955968   0.0000000), wk =   0.0277778
        k(   21) = (   0.1666656  -0.0006024   0.0000000), wk =   0.0277778
        k(   22) = (   0.1670067   0.0943921   0.0000000), wk =   0.0277778
        k(   23) = (   0.1673479   0.1893865   0.0000000), wk =   0.0277778
        k(   24) = (   0.1676891   0.2843809   0.0000000), wk =   0.0277778
        k(   25) = (   0.1680302   0.3793754   0.0000000), wk =   0.0277778
        k(   26) = (   0.1642774  -0.6655634   0.0000000), wk =   0.0277778
        k(   27) = (   0.1646186  -0.5705690   0.0000000), wk =   0.0277778
        k(   28) = (   0.1649598  -0.4755746   0.0000000), wk =   0.0277778
        k(   29) = (   0.1653009  -0.3805801   0.0000000), wk =   0.0277778
        k(   30) = (   0.1656421  -0.2855857   0.0000000), wk =   0.0277778
        k(   31) = (   0.1659833  -0.1905913   0.0000000), wk =   0.0277778
        k(   32) = (   0.2494866  -0.1433952   0.0000000), wk =   0.0277778
        k(   33) = (   0.2498278  -0.0484008   0.0000000), wk =   0.0277778
        k(   34) = (   0.2501689   0.0465936   0.0000000), wk =   0.0277778
        k(   35) = (   0.2505101   0.1415881   0.0000000), wk =   0.0277778
        k(   36) = (   0.2508513   0.2365825   0.0000000), wk =   0.0277778
        k(   37) = (   0.2511924   0.3315769   0.0000000), wk =   0.0277778
        k(   38) = (   0.2474397  -0.7133618   0.0000000), wk =   0.0277778
        k(   39) = (   0.2477808  -0.6183674   0.0000000), wk =   0.0277778
        k(   40) = (   0.2481220  -0.5233730   0.0000000), wk =   0.0277778
        k(   41) = (   0.2484631  -0.4283785   0.0000000), wk =   0.0277778
        k(   42) = (   0.2488043  -0.3333841   0.0000000), wk =   0.0277778
        k(   43) = (   0.2491455  -0.2383897   0.0000000), wk =   0.0277778
        k(   44) = (   0.3326488  -0.1911936   0.0000000), wk =   0.0277778
        k(   45) = (   0.3329900  -0.0961992   0.0000000), wk =   0.0277778
        k(   46) = (   0.3333312  -0.0012048   0.0000000), wk =   0.0277778
        k(   47) = (   0.3336723   0.0937897   0.0000000), wk =   0.0277778
        k(   48) = (   0.3340135   0.1887841   0.0000000), wk =   0.0277778
        k(   49) = (   0.3343546   0.2837785   0.0000000), wk =   0.0277778
        k(   50) = (   0.3306019  -0.7611603   0.0000000), wk =   0.0277778
        k(   51) = (   0.3309430  -0.6661658   0.0000000), wk =   0.0277778
        k(   52) = (   0.3312842  -0.5711714   0.0000000), wk =   0.0277778
        k(   53) = (   0.3316253  -0.4761769   0.0000000), wk =   0.0277778
        k(   54) = (   0.3319665  -0.3811825   0.0000000), wk =   0.0277778
        k(   55) = (   0.3323077  -0.2861881   0.0000000), wk =   0.0277778
        k(   56) = (   0.4158110  -0.2389921   0.0000000), wk =   0.0277778
        k(   57) = (   0.4161522  -0.1439976   0.0000000), wk =   0.0277778
        k(   58) = (   0.4164934  -0.0490032   0.0000000), wk =   0.0277778
        k(   59) = (   0.4168345   0.0459913   0.0000000), wk =   0.0277778
        k(   60) = (   0.4171757   0.1409857   0.0000000), wk =   0.0277778
        k(   61) = (   0.4175169   0.2359801   0.0000000), wk =   0.0277778
        k(   62) = (   0.4137641  -0.8089587   0.0000000), wk =   0.0277778
        k(   63) = (   0.4141052  -0.7139642   0.0000000), wk =   0.0277778
        k(   64) = (   0.4144464  -0.6189698   0.0000000), wk =   0.0277778
        k(   65) = (   0.4147876  -0.5239754   0.0000000), wk =   0.0277778
        k(   66) = (   0.4151287  -0.4289809   0.0000000), wk =   0.0277778
        k(   67) = (   0.4154699  -0.3339865   0.0000000), wk =   0.0277778
        k(   68) = (  -0.4989732   0.2867905   0.0000000), wk =   0.0138889
        k(   69) = (  -0.4986321   0.3817849   0.0000000), wk =   0.0277778
        k(   70) = (  -0.4982909   0.4767793   0.0000000), wk =   0.0277778
        k(   71) = (  -0.4979498   0.5717738   0.0000000), wk =   0.0277778
        k(   72) = (  -0.4976086   0.6667682   0.0000000), wk =   0.0277778
        k(   73) = (  -0.4972674   0.7617626   0.0000000), wk =   0.0277778
        k(   74) = (  -0.5010202  -0.2831762   0.0000000), wk =   0.0138889

     Dense  grid:   113933 G-vectors     FFT dimensions: (  40,  45, 160)

     Smooth grid:    40273 G-vectors     FFT dimensions: (  30,  30, 120)

     Estimated max dynamical RAM per process >      51.09 MB

     Estimated total dynamical RAM >     204.35 MB

     Initial potential from superposition of free atoms

     starting charge       7.9994, renormalised to       8.0000

     negative rho (up, down):  1.273E-05 0.000E+00


     %%%%%%%%%%%%%%%%%%%%%%%%%%%%%%%%%%%%%%%%%%%%%%%%%%%%%%%%%%%%%%%%%%%%%%%%
     %                                                                      %
     % You are using vdW-DF, which was implemented by the Thonhauser group. %
     % Please cite the following two papers that made this development      %
     % possible and the two reviews that describe the various versions:     %
     %                                                                      %
     %   T. Thonhauser et al., PRL 115, 136402 (2015).                      %
     %   T. Thonhauser et al., PRB 76, 125112 (2007).                       %
     %   K. Berland et al., Rep. Prog. Phys. 78, 066501 (2015).             %
     %   D.C. Langreth et al., J. Phys.: Condens. Matter 21, 084203 (2009). %
     %                                                                      %
     % If you are calculating stress with vdW-DF, please also cite:         %
     %                                                                      %
     %   R. Sabatini et al., J. Phys.: Condens. Matter 24, 424209 (2012).   %
     %                                                                      %
     %%%%%%%%%%%%%%%%%%%%%%%%%%%%%%%%%%%%%%%%%%%%%%%%%%%%%%%%%%%%%%%%%%%%%%%%

     %%%%%%%%%%%%%%%%%%%%%%%%%%%%%%%%%%%%%%%%%%%%%%%%%%%%%%%%%%%%%%%%%%%%%%%%
     %                                                                      %
     %  vdW-DF NEWS:                                                        %
     %                                                                      %
     %  * vdW-DF3 is now available. DOI: 10.1021/acs.jctc.0c00471           %
     %    use with input_dft = 'vdW-DF3-opt1' or 'vdW-DF3-opt2'             %
     %                                                                      %
     %  * Unscreened and range-separated hybrid vdW-DF-cx functionals       %
     %    DOI: 10.1063/1.4986522 and 10.1088/1361-648X/ac2ad2               %
     %    use with input_dft = 'vdW-DF-cx0'    and 'vdW-DF-ahcx'            %
     %  * Unscreened and range-separated hybrid vdW-DF2-b86r functionals    %
     %    DOI: 10.1063/1.4986522 and DOI: 10.1103/PhysRevX.12.041003        %
     %    use with input_dft = 'vdW-DF2-br0' and 'vdW-DF2-ahbr'             %
     %                                                                      %
     %%%%%%%%%%%%%%%%%%%%%%%%%%%%%%%%%%%%%%%%%%%%%%%%%%%%%%%%%%%%%%%%%%%%%%%%


     Starting wfcs are   10 randomized atomic wfcs

     total cpu time spent up to now is       27.0 secs

     per-process dynamical memory:    97.9 Mb

     Self-consistent Calculation

     iteration #  1     ecut=    60.00 Ry     beta= 0.70
     Davidson diagonalization with overlap
     ethr =  1.00E-02,  avg # of iterations =  3.9

     negative rho (up, down):  1.303E-05 0.000E+00

     total cpu time spent up to now is       30.2 secs

     total energy              =     -15.04579823 Ry
     estimated scf accuracy    <       0.32954156 Ry

     iteration #  2     ecut=    60.00 Ry     beta= 0.70
     Davidson diagonalization with overlap
     ethr =  4.12E-03,  avg # of iterations =  3.7

     negative rho (up, down):  2.211E-05 0.000E+00

     total cpu time spent up to now is       33.1 secs

     total energy              =     -15.10087133 Ry
     estimated scf accuracy    <       0.01850134 Ry

     iteration #  3     ecut=    60.00 Ry     beta= 0.70
     Davidson diagonalization with overlap
     ethr =  2.31E-04,  avg # of iterations =  5.3

     negative rho (up, down):  3.130E-05 0.000E+00

     total cpu time spent up to now is       36.4 secs

     total energy              =     -15.10411149 Ry
     estimated scf accuracy    <       0.00060735 Ry

     iteration #  4     ecut=    60.00 Ry     beta= 0.70
     Davidson diagonalization with overlap
     ethr =  7.59E-06,  avg # of iterations =  5.1

     negative rho (up, down):  3.216E-05 0.000E+00

     total cpu time spent up to now is       39.6 secs

     total energy              =     -15.10419530 Ry
     estimated scf accuracy    <       0.00009360 Ry

     iteration #  5     ecut=    60.00 Ry     beta= 0.70
     Davidson diagonalization with overlap
     ethr =  1.17E-06,  avg # of iterations =  2.9

     negative rho (up, down):  3.358E-05 0.000E+00

     total cpu time spent up to now is       42.0 secs

     total energy              =     -15.10422032 Ry
     estimated scf accuracy    <       0.00000728 Ry

     iteration #  6     ecut=    60.00 Ry     beta= 0.70
     Davidson diagonalization with overlap
     ethr =  9.10E-08,  avg # of iterations =  2.0

     negative rho (up, down):  3.385E-05 0.000E+00

     total cpu time spent up to now is       44.2 secs

     total energy              =     -15.10422180 Ry
     estimated scf accuracy    <       0.00000017 Ry

     iteration #  7     ecut=    60.00 Ry     beta= 0.70
     Davidson diagonalization with overlap
     ethr =  2.09E-09,  avg # of iterations =  2.3

     negative rho (up, down):  3.392E-05 0.000E+00

     total cpu time spent up to now is       46.9 secs

     total energy              =     -15.10422185 Ry
     estimated scf accuracy    <          6.5E-09 Ry

     iteration #  8     ecut=    60.00 Ry     beta= 0.70
     Davidson diagonalization with overlap
     ethr =  8.09E-11,  avg # of iterations =  2.8

     negative rho (up, down):  3.391E-05 0.000E+00

     total cpu time spent up to now is       49.3 secs

     End of self-consistent calculation

          k = 0.0000 0.0000 0.0000 (  5017 PWs)   bands (ev):

   -14.5598  -8.8618  -3.1235  -0.6564   0.5745   1.9382   2.9112   5.5819

          k = 0.0003 0.0950 0.0000 (  4979 PWs)   bands (ev):

   -14.4614  -8.7441  -3.5096  -0.9032   0.6984   2.0791   3.0395   5.6924

          k = 0.0007 0.1900 0.0000 (  4988 PWs)   bands (ev):

   -14.1714  -8.3964  -4.4959  -1.4696   1.0845   2.4825   3.4309   3.9654

          k = 0.0010 0.2850 0.0000 (  5020 PWs)   bands (ev):

   -13.7081  -7.8385  -5.7599  -2.0855   1.7340   1.8993   3.3057   4.0582

          k = 0.0014 0.3800 0.0000 (  5038 PWs)   bands (ev):

   -13.1180  -7.1230  -7.0330  -2.5922   0.1806   2.6062   4.2714   4.6426

          k = 0.0017 0.4750 0.0000 (  5038 PWs)   bands (ev):

   -12.5261  -8.0743  -6.3902  -2.9164  -1.1780   3.4890   4.9144   5.5298

          k =-0.0020-0.5700 0.0000 (  5036 PWs)   bands (ev):

   -12.2393  -8.5160  -6.0277  -3.0274  -1.7522   3.8178   5.6265   6.1192

          k = 0.0832-0.0478 0.0000 (  5007 PWs)   bands (ev):

   -14.4616  -8.7611  -3.4005  -1.0432   0.7110   2.0792   3.0532   5.6514

          k = 0.0835 0.0472 0.0000 (  5007 PWs)   bands (ev):

   -14.4616  -8.7611  -3.4006  -1.0431   0.7110   2.0792   3.0532   5.6518

          k = 0.0838 0.1422 0.0000 (  5003 PWs)   bands (ev):

   -14.2676  -8.5301  -4.0899  -1.4478   0.9660   2.3533   3.3147   4.8465

          k = 0.0842 0.2372 0.0000 (  5010 PWs)   bands (ev):

   -13.8908  -8.0802  -5.1846  -2.0863   1.4893   2.6149   3.2095   3.8423

          k = 0.0845 0.3322 0.0000 (  5029 PWs)   bands (ev):

   -13.3614  -7.4448  -6.4168  -2.7068   1.0173   2.2680   3.8518   4.5774

          k = 0.0849 0.4272 0.0000 (  5030 PWs)   bands (ev):

   -12.7559  -7.5608  -6.7105  -3.1634  -0.5083   3.2286   4.9612   5.1330

          k = 0.0811-0.6178 0.0000 (  5055 PWs)   bands (ev):

   -12.2771  -8.3279  -6.1203  -3.4005  -1.5045   4.0304   5.5549   6.2898

          k = 0.0815-0.5228 0.0000 (  5055 PWs)   bands (ev):

   -12.2771  -8.3279  -6.1203  -3.4005  -1.5045   4.0304   5.5550   6.2898

          k = 0.0818-0.4278 0.0000 (  5030 PWs)   bands (ev):

   -12.7559  -7.5608  -6.7105  -3.1634  -0.5083   3.2286   4.9612   5.1329

          k = 0.0821-0.3328 0.0000 (  5029 PWs)   bands (ev):

   -13.3614  -7.4448  -6.4167  -2.7068   1.0173   2.2681   3.8518   4.5774

          k = 0.0825-0.2378 0.0000 (  5010 PWs)   bands (ev):

   -13.8908  -8.0802  -5.1846  -2.0864   1.4894   2.6150   3.2095   3.8423

          k = 0.0828-0.1428 0.0000 (  5003 PWs)   bands (ev):

   -14.2676  -8.5301  -4.0897  -1.4480   0.9660   2.3533   3.3147   4.8467

          k = 0.1663-0.0956 0.0000 (  5007 PWs)   bands (ev):

   -14.1732  -8.4692  -4.1537  -1.9104   1.1261   2.4900   3.4819   5.3128

          k = 0.1667-0.0006 0.0000 (  4991 PWs)   bands (ev):

   -14.2683  -8.5805  -3.8001  -1.8169   0.9969   2.3591   3.3498   5.9688

          k = 0.1670 0.0944 0.0000 (  5007 PWs)   bands (ev):

   -14.1732  -8.4692  -4.1540  -1.9100   1.1261   2.4900   3.4819   5.3117

          k = 0.1673 0.1894 0.0000 (  5031 PWs)   bands (ev):

   -13.8936  -8.1417  -4.9670  -2.3650   1.5183   2.7880   3.7092   3.8816

          k = 0.1677 0.2844 0.0000 (  5037 PWs)   bands (ev):

   -13.4504  -7.6220  -5.9607  -3.0911   1.7708   2.1779   3.7457   4.5508

          k = 0.1680 0.3794 0.0000 (  5046 PWs)   bands (ev):

   -12.8946  -6.9909  -6.9635  -3.7633   0.2919   3.0778   4.6693   5.4267

          k = 0.1643-0.6656 0.0000 (  5071 PWs)   bands (ev):

   -12.3532  -7.8486  -6.3297  -4.1989  -0.8702   4.1113   5.7974   6.1320

          k = 0.1646-0.5706 0.0000 (  5067 PWs)   bands (ev):

   -12.1004  -8.2162  -6.0302  -4.3466  -1.3476   4.7354   6.5137   6.8238

          k = 0.1650-0.4756 0.0000 (  5071 PWs)   bands (ev):

   -12.3532  -7.8486  -6.3297  -4.1989  -0.8701   4.1113   5.7974   6.1320

          k = 0.1653-0.3806 0.0000 (  5048 PWs)   bands (ev):

   -12.8946  -6.9909  -6.9635  -3.7634   0.2920   3.0778   4.6694   5.4268

          k = 0.1656-0.2856 0.0000 (  5037 PWs)   bands (ev):

   -13.4503  -7.6220  -5.9605  -3.0914   1.7710   2.1779   3.7457   4.5509

          k = 0.1660-0.1906 0.0000 (  5031 PWs)   bands (ev):

   -13.8936  -8.1417  -4.9667  -2.3654   1.5183   2.7881   3.7095   3.8817

          k = 0.2495-0.1434 0.0000 (  5031 PWs)   bands (ev):

   -13.7177  -8.0210  -5.2239  -2.7883   1.8212   2.9950   3.9864   4.1940

          k = 0.2498-0.0484 0.0000 (  5026 PWs)   bands (ev):

   -13.8961  -8.2227  -4.6044  -2.8175   1.5582   2.8967   3.9300   5.1298

          k = 0.2502 0.0466 0.0000 (  5026 PWs)   bands (ev):

   -13.8961  -8.2227  -4.6046  -2.8172   1.5582   2.8966   3.9301   5.1296

          k = 0.2505 0.1416 0.0000 (  5031 PWs)   bands (ev):

   -13.7177  -8.0210  -5.2243  -2.7877   1.8212   2.9948   3.9860   4.1938

          k = 0.2509 0.2366 0.0000 (  5038 PWs)   bands (ev):

   -13.3761  -7.6353  -5.9875  -3.2557   2.1736   2.3463   3.9634   4.7155

          k = 0.2512 0.3316 0.0000 (  5053 PWs)   bands (ev):

   -12.9099  -7.1110  -6.7176  -4.0803   0.9528   3.1259   4.6977   5.5219

          k = 0.2474-0.7134 0.0000 (  5056 PWs)   bands (ev):

   -12.4055  -7.3560  -6.5460  -4.8477  -0.0999   4.1085   5.5605   6.4813

          k = 0.2478-0.6184 0.0000 (  5062 PWs)   bands (ev):

   -12.0400  -7.7809  -6.1396  -5.2813  -0.7546   5.0625   5.9187   6.9768

          k = 0.2481-0.5234 0.0000 (  5062 PWs)   bands (ev):

   -12.0399  -7.7808  -6.1396  -5.2814  -0.7545   5.0626   5.9187   6.9769

          k = 0.2485-0.4284 0.0000 (  5056 PWs)   bands (ev):

   -12.4054  -7.3559  -6.5459  -4.8479  -0.0998   4.1086   5.5605   6.4814

          k = 0.2488-0.3334 0.0000 (  5053 PWs)   bands (ev):

   -12.9098  -7.1109  -6.7174  -4.0806   0.9531   3.1260   4.6977   5.5218

          k = 0.2491-0.2384 0.0000 (  5038 PWs)   bands (ev):

   -13.3760  -7.6353  -5.9872  -3.2562   2.1740   2.3464   3.9635   4.7153

          k = 0.3326-0.1912 0.0000 (  5036 PWs)   bands (ev):

   -13.1511  -7.4924  -6.3890  -3.4442   2.1792   2.7820   4.4048   4.7485

          k = 0.3330-0.0962 0.0000 (  5043 PWs)   bands (ev):

   -13.3816  -7.7368  -5.6926  -3.6211   2.3908   3.1623   4.0622   4.7893

          k = 0.3333-0.0012 0.0000 (  5043 PWs)   bands (ev):

   -13.4617  -7.8219  -5.2578  -3.9294   2.2581   3.5428   4.1776   4.6552

          k = 0.3337 0.0938 0.0000 (  5043 PWs)   bands (ev):

   -13.3816  -7.7368  -5.6931  -3.6205   2.3908   3.1620   4.0620   4.7890

          k = 0.3340 0.1888 0.0000 (  5036 PWs)   bands (ev):

   -13.1512  -7.4924  -6.3894  -3.4435   2.1788   2.7819   4.4047   4.7493

          k = 0.3344 0.2838 0.0000 (  5056 PWs)   bands (ev):

   -12.8036  -7.1261  -6.9692  -3.9008   1.2405   3.4183   5.0508   5.1250

          k = 0.3306-0.7612 0.0000 (  5051 PWs)   bands (ev):

   -12.4074  -7.3200  -6.7089  -4.7901   0.5021   4.2683   5.7266   6.3075

          k = 0.3309-0.6662 0.0000 (  5056 PWs)   bands (ev):

   -12.0771  -7.3926  -6.3604  -5.6825   0.0190   5.1622   5.5045   7.1316

          k = 0.3313-0.5712 0.0000 (  5049 PWs)   bands (ev):

   -11.9457  -7.3234  -6.2209  -6.1126  -0.1526   5.2417   5.5907   7.5054

          k = 0.3316-0.4762 0.0000 (  5056 PWs)   bands (ev):

   -12.0770  -7.3924  -6.3604  -5.6828   0.0192   5.1623   5.5043   7.1318

          k = 0.3320-0.3812 0.0000 (  5051 PWs)   bands (ev):

   -12.4073  -7.3197  -6.7089  -4.7906   0.5024   4.2685   5.7265   6.3065

          k = 0.3323-0.2862 0.0000 (  5056 PWs)   bands (ev):

   -12.8035  -7.1260  -6.9689  -3.9014   1.2409   3.4185   5.0509   5.1241

          k = 0.4158-0.2390 0.0000 (  5035 PWs)   bands (ev):

   -12.6080  -7.3537  -7.0276  -3.8359   1.2004   3.9516   4.5552   5.6306

          k = 0.4162-0.1440 0.0000 (  5059 PWs)   bands (ev):

   -12.8118  -7.2211  -6.7971  -4.1129   1.9237   3.4674   4.9640   5.1771

          k = 0.4165-0.0490 0.0000 (  5060 PWs)   bands (ev):

   -12.9288  -7.3314  -6.1134  -4.7706   2.7408   3.2109   4.3823   5.6445

          k = 0.4168 0.0460 0.0000 (  5060 PWs)   bands (ev):

   -12.9289  -7.3314  -6.1138  -4.7702   2.7405   3.2109   4.3824   5.6445

          k = 0.4172 0.1410 0.0000 (  5059 PWs)   bands (ev):

   -12.8119  -7.2211  -6.7976  -4.1122   1.9232   3.4673   4.9640   5.1780

          k = 0.4175 0.2360 0.0000 (  5035 PWs)   bands (ev):

   -12.6081  -7.3541  -7.0276  -3.8353   1.1999   3.9515   4.5560   5.6305

          k = 0.4138-0.8090 0.0000 (  5051 PWs)   bands (ev):

   -12.3779  -7.6090  -6.8035  -4.2523   0.7687   4.5852   5.0342   6.3445

          k = 0.4141-0.7140 0.0000 (  5056 PWs)   bands (ev):

   -12.1938  -7.4816  -6.6114  -5.1404   0.6468   5.1307   5.7543   6.2768

          k = 0.4144-0.6190 0.0000 (  5053 PWs)   bands (ev):

   -12.0995  -6.9678  -6.5032  -6.1192   0.7043   4.9405   5.2375   7.2690

          k = 0.4148-0.5240 0.0000 (  5053 PWs)   bands (ev):

   -12.0995  -6.9674  -6.5032  -6.1197   0.7045   4.9404   5.2375   7.2691

          k = 0.4151-0.4290 0.0000 (  5056 PWs)   bands (ev):

   -12.1937  -7.4813  -6.6114  -5.1409   0.6472   5.1308   5.7539   6.2759

          k = 0.4155-0.3340 0.0000 (  5051 PWs)   bands (ev):

   -12.3777  -7.6087  -6.8035  -4.2529   0.7692   4.5854   5.0334   6.3444

          k =-0.4990 0.2868 0.0000 (  5038 PWs)   bands (ev):

   -12.3599  -7.7516  -6.8337  -3.9659   0.8220   4.4698   4.8664   6.2592

          k =-0.4986 0.3818 0.0000 (  5049 PWs)   bands (ev):

   -12.3828  -7.5525  -6.8453  -4.3203   1.0035   4.6405   5.0158   6.1746

          k =-0.4983 0.4768 0.0000 (  5054 PWs)   bands (ev):

   -12.4268  -7.0030  -6.8680  -5.1416   1.4531   4.3468   5.1643   6.3559

          k =-0.4979 0.5718 0.0000 (  5075 PWs)   bands (ev):

   -12.4480  -6.8799  -6.3988  -5.8658   1.7584   4.2352   4.6290   6.7020

          k =-0.4976 0.6668 0.0000 (  5054 PWs)   bands (ev):

   -12.4268  -7.0034  -6.8680  -5.1410   1.4527   4.3468   5.1645   6.3567

          k =-0.4973 0.7618 0.0000 (  5049 PWs)   bands (ev):

   -12.3829  -7.5529  -6.8453  -4.3196   1.0030   4.6403   5.0167   6.1747

          k =-0.5010-0.2832 0.0000 (  5038 PWs)   bands (ev):

   -12.3601  -7.7520  -6.8337  -3.9652   0.8215   4.4706   4.8661   6.2590

     the Fermi energy is    -1.2555 ev

!    total energy              =     -15.10422185 Ry
     estimated scf accuracy    <          2.2E-10 Ry
     smearing contrib. (-TS)   =      -0.00015341 Ry
     internal energy E=F+TS    =     -15.10406844 Ry

     The total energy is F=E-TS. E is the sum of the following terms:
     one-electron contribution =     -65.70693874 Ry
     hartree contribution      =      34.41169039 Ry
     xc contribution           =      -7.34285813 Ry
     ewald contribution        =      23.53403803 Ry

     convergence has been achieved in   8 iterations

     negative rho (up, down):  3.391E-05 0.000E+00

     Forces acting on atoms (cartesian axes, Ry/au):

     atom    1 type  1   force =    -0.00001664    0.00524392   -0.00223909
     atom    2 type  1   force =     0.00002108   -0.00522042   -0.00223842
     atom    3 type  2   force =    -0.00000193   -0.00001206    0.00645677
     atom    4 type  2   force =    -0.00000251   -0.00001144   -0.00197926
     The non-local contrib.  to forces
     atom    1 type  1   force =    -0.00130001   -0.35088470   -0.00242562
     atom    2 type  1   force =     0.00132112    0.35092663   -0.00242494
     atom    3 type  2   force =    -0.00000754    0.00000464   -0.11536119
     atom    4 type  2   force =    -0.00000770    0.00000441    0.11383070
     The ionic contribution  to forces
     atom    1 type  1   force =     0.00246890    0.70483078   -0.00119426
     atom    2 type  1   force =    -0.00256546   -0.70474582   -0.00119282
     atom    3 type  2   force =     0.00004882   -0.00004318    2.58038563
     atom    4 type  2   force =     0.00004773   -0.00004178   -2.57799856
     The local contribution  to forces
     atom    1 type  1   force =    -0.00121423   -0.35627440    0.00127228
     atom    2 type  1   force =     0.00129415    0.35617312    0.00127098
     atom    3 type  2   force =    -0.00004327    0.00002645   -2.45856771
     atom    4 type  2   force =    -0.00004259    0.00002592    2.46219152
     The core correction contribution to forces
     atom    1 type  1   force =     0.00002862    0.00757784    0.00011397
     atom    2 type  1   force =    -0.00002876   -0.00757987    0.00011382
     atom    3 type  2   force =     0.00000000    0.00000000    0.00000000
     atom    4 type  2   force =     0.00000000    0.00000000    0.00000000
     The Hubbard contrib.    to forces
     atom    1 type  1   force =     0.00000000    0.00000000    0.00000000
     atom    2 type  1   force =     0.00000000    0.00000000    0.00000000
     atom    3 type  2   force =     0.00000000    0.00000000    0.00000000
     atom    4 type  2   force =     0.00000000    0.00000000    0.00000000
     The SCF correction term to forces
     atom    1 type  1   force =     0.00000003   -0.00000556   -0.00000493
     atom    2 type  1   force =    -0.00000000    0.00000556   -0.00000493
     atom    3 type  2   force =     0.00000001    0.00000006    0.00000056
     atom    4 type  2   force =     0.00000001    0.00000006   -0.00000240

     Total force =     0.010506     Total SCF correction =     0.000011

     Writing all to output data dir tmpdir/pwscf.save/
 
     init_run     :     26.73s CPU     26.97s WALL (       1 calls)
     electrons    :     18.47s CPU     22.24s WALL (       1 calls)
     forces       :      0.52s CPU      0.57s WALL (       1 calls)

     Called by init_run:
     wfcinit      :      0.69s CPU      0.84s WALL (       1 calls)
     potinit      :     25.78s CPU     25.84s WALL (       1 calls)
     hinit0       :      0.21s CPU      0.23s WALL (       1 calls)

     Called by electrons:
     c_bands      :     14.27s CPU     16.92s WALL (       8 calls)
     sum_band     :      2.35s CPU      2.92s WALL (       8 calls)
     v_of_rho     :     27.23s CPU     27.79s WALL (       9 calls)
     newd         :      0.20s CPU      0.24s WALL (       9 calls)
     mix_rho      :      0.03s CPU      0.05s WALL (       8 calls)
     vdW_kernel   :     25.43s CPU     25.43s WALL (       1 calls)

     Called by c_bands:
     init_us_2    :      0.26s CPU      0.30s WALL (    1332 calls)
     init_us_2:cp :      0.25s CPU      0.30s WALL (    1332 calls)
     cegterg      :     13.71s CPU     16.26s WALL (     592 calls)

     Called by *egterg:
     cdiaghg      :      0.41s CPU      0.49s WALL (    2658 calls)
     h_psi        :     12.17s CPU     14.44s WALL (    2732 calls)
     s_psi        :      0.18s CPU      0.22s WALL (    2732 calls)
     g_psi        :      0.04s CPU      0.05s WALL (    2066 calls)

     Called by h_psi:
     h_psi:calbec :      0.45s CPU      0.54s WALL (    2732 calls)
     vloc_psi     :     11.38s CPU     13.50s WALL (    2732 calls)
     add_vuspsi   :      0.28s CPU      0.33s WALL (    2732 calls)

     General routines
     calbec       :      0.63s CPU      0.76s WALL (    3620 calls)
     fft          :      0.92s CPU      1.32s WALL (     626 calls)
     ffts         :      0.01s CPU      0.01s WALL (      17 calls)
     fftw         :     11.19s CPU     13.38s WALL (   33280 calls)
     interpolate  :      0.02s CPU      0.03s WALL (       9 calls)
 
     Parallel routines
 
     PWSCF        :     45.83s CPU     49.97s WALL

 
   This run was terminated on:  10:31:55   1Dec2023            

=------------------------------------------------------------------------------=
   JOB DONE.
=------------------------------------------------------------------------------=
