
     Program PWSCF v.7.2 starts on  8Nov2023 at 17: 8: 2 

     This program is part of the open-source Quantum ESPRESSO suite
     for quantum simulation of materials; please cite
         "P. Giannozzi et al., J. Phys.:Condens. Matter 21 395502 (2009);
         "P. Giannozzi et al., J. Phys.:Condens. Matter 29 465901 (2017);
         "P. Giannozzi et al., J. Chem. Phys. 152 154105 (2020);
          URL http://www.quantum-espresso.org", 
     in publications or presentations arising from this work. More details at
     http://www.quantum-espresso.org/quote

     Parallel version (MPI), running on     4 processors

     MPI processes distributed on     1 nodes
     9300 MiB available memory on the printing compute node when the environment starts
 
     Reading input from espresso.pwi
Warning: card &CELL ignored
Warning: card / ignored

     Current dimensions of program PWSCF are:
     Max number of different atomic species (ntypx) = 10
     Max number of k-points (npk) =  40000
     Max angular momentum in pseudopotentials (lmaxx) =  4
     Presently no symmetry can be used with electric field

 
     R & G space division:  proc/nbgrp/npool/nimage =       4
     Subspace diagonalization in iterative solution of the eigenvalue problem:
     a serial algorithm will be used

 
     Parallelization info
     --------------------
     sticks:   dense  smooth     PW     G-vecs:    dense   smooth      PW
     Min        7666    3832    958              1011072   357408   44730
     Max        7670    3833    959              1011073   357411   44733
     Sum       30669   15329   3833              4044289  1429635  178925
 
     Using Slab Decomposition
 


     bravais-lattice index     =            0
     lattice parameter (alat)  =      28.3459  a.u.
     unit-cell volume          =   22775.6289 (a.u.)^3
     number of atoms/cell      =            3
     number of atomic types    =            2
     number of electrons       =         8.00
     number of Kohn-Sham states=            8
     kinetic-energy cutoff     =      60.0000  Ry
     charge density cutoff     =     480.0000  Ry
     scf convergence threshold =      1.0E-07
     mixing beta               =       0.7000
     number of iterations used =            8  plain     mixing
     Exchange-correlation=  SLA  PW   PBX  PBC
                           (   1   4   3   4   0   0   0)

     celldm(1)=  28.345892  celldm(2)=   0.000000  celldm(3)=   0.000000
     celldm(4)=   0.000000  celldm(5)=   0.000000  celldm(6)=   0.000000

     crystal axes: (cart. coord. in units of alat)
               a(1) = (   1.000000   0.000000   0.000000 )  
               a(2) = (   0.000000   1.000000   0.000000 )  
               a(3) = (   0.000000   0.000000   1.000000 )  

     reciprocal axes: (cart. coord. in units 2 pi/alat)
               b(1) = (  1.000000  0.000000  0.000000 )  
               b(2) = (  0.000000  1.000000  0.000000 )  
               b(3) = (  0.000000  0.000000  1.000000 )  


     PseudoPot. # 1 for O  read from file:
     /home/krojas/github_files/MatSciToolKit/tutorial/example_ase_ir_2/ir_1/o_pbe_v1.2.uspp.F.UPF
     MD5 check sum: 734c27235a0248c51dbae37a1fbe46ec
     Pseudo is Ultrasoft + core correction, Zval =  6.0
     Generated by new atomic code, or converted to UPF format
     Using radial grid of  737 points,  5 beta functions with: 
                l(1) =   0
                l(2) =   0
                l(3) =   1
                l(4) =   1
                l(5) =   2
     Q(r) pseudized with  8 coefficients,  rinner =    0.900   0.900   0.900
                                                       0.900   0.900

     PseudoPot. # 2 for H  read from file:
     /home/krojas/github_files/MatSciToolKit/tutorial/example_ase_ir_2/ir_1/h_pbe_v1.4.uspp.F.UPF
     MD5 check sum: 761ae9a214b05c3daf00ab9f6b793d6f
     Pseudo is Ultrasoft, Zval =  1.0
     Generated by new atomic code, or converted to UPF format
     Using radial grid of  615 points,  2 beta functions with: 
                l(1) =   0
                l(2) =   0
     Q(r) pseudized with  8 coefficients,  rinner =    0.700

     atomic species   valence    mass     pseudopotential
        O              6.00    15.99900     O ( 1.00)
        H              1.00     1.00800     H ( 1.00)

     No symmetry found



   Cartesian axes

     site n.     atom                  positions (alat units)
         1           O   tau(   1) = (   0.5000000   0.5000000   0.5201804  )
         2           H   tau(   2) = (   0.5006667   0.5513479   0.4798196  )
         3           H   tau(   3) = (   0.5000000   0.4486521   0.4798196  )

     number of k points=     1  Gaussian smearing, width (Ry)=  0.0100
                       cart. coord. in units 2pi/alat
        k(    1) = (   0.0000000   0.0000000   0.0000000), wk =   2.0000000

     Dense  grid:  4044289 G-vectors     FFT dimensions: ( 200, 200, 200)

     Smooth grid:  1429635 G-vectors     FFT dimensions: ( 144, 144, 144)

     Estimated max dynamical RAM per process >       2.25 GB

     Estimated total dynamical RAM >       9.02 GB

     Initial potential from superposition of free atoms

     starting charge       8.0000, renormalised to       8.0000

     negative rho (up, down):  5.059E-04 0.000E+00
 
     Adding external electric field

     Computed dipole along edir(1) : 
        Dipole                0.0000 Ry au,          0.0000 Debye
        Dipole field          0.0000 Ry au, 
 
        Potential amp.       -0.0000 Ry
        Total length         28.3431 bohr
 
     Starting wfcs are    6 randomized atomic wfcs +    2 random wfcs

     total cpu time spent up to now is        8.5 secs

     per-process dynamical memory:   488.9 Mb

     Self-consistent Calculation

     iteration #  1     ecut=    60.00 Ry     beta= 0.70
     Davidson diagonalization with overlap
     ethr =  1.00E-02,  avg # of iterations =  8.0

     negative rho (up, down):  1.822E-03 0.000E+00
 
     Adding external electric field

     Computed dipole along edir(1) : 
        Dipole                0.0066 Ry au,          0.0168 Debye
        Dipole field          0.0000 Ry au, 
 
        Potential amp.       -0.0002 Ry
        Total length         28.3431 bohr
 

     total cpu time spent up to now is       19.6 secs

     total energy              =     -34.47403128 Ry
     estimated scf accuracy    <       0.45690465 Ry

     iteration #  2     ecut=    60.00 Ry     beta= 0.70
     Davidson diagonalization with overlap
     ethr =  5.71E-03,  avg # of iterations =  2.0

     negative rho (up, down):  2.091E-03 0.000E+00
 
     Adding external electric field

     Computed dipole along edir(1) : 
        Dipole                0.0042 Ry au,          0.0107 Debye
        Dipole field          0.0000 Ry au, 
 
        Potential amp.       -0.0001 Ry
        Total length         28.3431 bohr
 

     total cpu time spent up to now is       29.3 secs

     total energy              =     -34.58675051 Ry
     estimated scf accuracy    <       0.45082064 Ry

     iteration #  3     ecut=    60.00 Ry     beta= 0.70
     Davidson diagonalization with overlap
     ethr =  5.64E-03,  avg # of iterations =  2.0

     negative rho (up, down):  2.371E-03 0.000E+00
 
     Adding external electric field

     Computed dipole along edir(1) : 
        Dipole                0.0059 Ry au,          0.0150 Debye
        Dipole field          0.0000 Ry au, 
 
        Potential amp.       -0.0002 Ry
        Total length         28.3431 bohr
 

     total cpu time spent up to now is       39.0 secs

     total energy              =     -34.66655751 Ry
     estimated scf accuracy    <       0.00371030 Ry

     iteration #  4     ecut=    60.00 Ry     beta= 0.70
     Davidson diagonalization with overlap
     ethr =  4.64E-05,  avg # of iterations =  8.0

     negative rho (up, down):  2.367E-03 0.000E+00
 
     Adding external electric field

     Computed dipole along edir(1) : 
        Dipole                0.0058 Ry au,          0.0147 Debye
        Dipole field          0.0000 Ry au, 
 
        Potential amp.       -0.0002 Ry
        Total length         28.3431 bohr
 

     total cpu time spent up to now is       51.0 secs

     total energy              =     -34.66756423 Ry
     estimated scf accuracy    <       0.00176485 Ry

     iteration #  5     ecut=    60.00 Ry     beta= 0.70
     Davidson diagonalization with overlap
     ethr =  2.21E-05,  avg # of iterations =  1.0

     negative rho (up, down):  2.409E-03 0.000E+00
 
     Adding external electric field

     Computed dipole along edir(1) : 
        Dipole                0.0059 Ry au,          0.0149 Debye
        Dipole field          0.0000 Ry au, 
 
        Potential amp.       -0.0002 Ry
        Total length         28.3431 bohr
 

     total cpu time spent up to now is       61.5 secs

     total energy              =     -34.66741739 Ry
     estimated scf accuracy    <       0.00035294 Ry

     iteration #  6     ecut=    60.00 Ry     beta= 0.70
     Davidson diagonalization with overlap
     ethr =  4.41E-06,  avg # of iterations =  8.0

     negative rho (up, down):  2.405E-03 0.000E+00
 
     Adding external electric field

     Computed dipole along edir(1) : 
        Dipole                0.0058 Ry au,          0.0148 Debye
        Dipole field          0.0000 Ry au, 
 
        Potential amp.       -0.0002 Ry
        Total length         28.3431 bohr
 

     total cpu time spent up to now is       72.8 secs

     total energy              =     -34.66753767 Ry
     estimated scf accuracy    <       0.00012394 Ry

     iteration #  7     ecut=    60.00 Ry     beta= 0.70
     Davidson diagonalization with overlap
     ethr =  1.55E-06,  avg # of iterations =  5.0

     negative rho (up, down):  2.412E-03 0.000E+00
 
     Adding external electric field

     Computed dipole along edir(1) : 
        Dipole                0.0059 Ry au,          0.0150 Debye
        Dipole field          0.0000 Ry au, 
 
        Potential amp.       -0.0002 Ry
        Total length         28.3431 bohr
 

     total cpu time spent up to now is       83.1 secs

     total energy              =     -34.66755725 Ry
     estimated scf accuracy    <       0.00000097 Ry

     iteration #  8     ecut=    60.00 Ry     beta= 0.70
     Davidson diagonalization with overlap
     ethr =  1.21E-08,  avg # of iterations =  2.0

     negative rho (up, down):  2.413E-03 0.000E+00
 
     Adding external electric field

     Computed dipole along edir(1) : 
        Dipole                0.0059 Ry au,          0.0149 Debye
        Dipole field          0.0000 Ry au, 
 
        Potential amp.       -0.0002 Ry
        Total length         28.3431 bohr
 

     total cpu time spent up to now is       93.4 secs

     total energy              =     -34.66755733 Ry
     estimated scf accuracy    <       0.00000022 Ry

     iteration #  9     ecut=    60.00 Ry     beta= 0.70
     Davidson diagonalization with overlap
     ethr =  2.80E-09,  avg # of iterations =  2.0

     negative rho (up, down):  2.413E-03 0.000E+00
 
     Adding external electric field

     Computed dipole along edir(1) : 
        Dipole                0.0058 Ry au,          0.0149 Debye
        Dipole field          0.0000 Ry au, 
 
        Potential amp.       -0.0002 Ry
        Total length         28.3431 bohr
 

     total cpu time spent up to now is      103.9 secs

     End of self-consistent calculation

          k = 0.0000 0.0000 0.0000 (178925 PWs)   bands (ev):

   -25.1323 -12.9368  -9.3065  -7.1892  -0.9898  -0.1059   0.2510   0.3816

     the Fermi energy is    -5.3166 ev

!    total energy              =     -34.66755736 Ry
     estimated scf accuracy    <          6.6E-09 Ry
     smearing contrib. (-TS)   =      -0.00000000 Ry
     internal energy E=F+TS    =     -34.66755736 Ry

     The total energy is F=E-TS. E is the sum of the following terms:
     one-electron contribution =     -69.44326647 Ry
     hartree contribution      =      36.20031227 Ry
     xc contribution           =      -8.67806891 Ry
     ewald contribution        =       7.25346573 Ry
     electric field correction =       0.00000002 Ry

     convergence has been achieved in   9 iterations

     negative rho (up, down):  2.413E-03 0.000E+00

     Forces acting on atoms (cartesian axes, Ry/au):

     atom    1 type  1   force =     0.00000556    0.00008004   -0.00004804
     atom    2 type  2   force =    -0.00000318   -0.00006571    0.00005587
     atom    3 type  2   force =    -0.00000237   -0.00001433   -0.00000783
     The non-local contrib.  to forces
     atom    1 type  1   force =     0.01798372   -0.00010392   -2.17350596
     atom    2 type  2   force =    -0.00243778   -0.19520210    0.14173606
     atom    3 type  2   force =     0.00009731    0.19524087    0.14176685
     The ionic contribution  to forces
     atom    1 type  1   force =    -0.03569213    0.00043015    4.32197612
     atom    2 type  2   force =     0.03721755    2.98391061   -2.16081901
     atom    3 type  2   force =    -0.00152543   -2.98434076   -2.16115711
     The local contribution  to forces
     atom    1 type  1   force =     0.01785884   -0.00024659   -2.16031209
     atom    2 type  2   force =    -0.03477653   -2.78877319    2.01911705
     atom    3 type  2   force =     0.00143335    2.78908254    2.01936010
     The core correction contribution to forces
     atom    1 type  1   force =    -0.00009578   -0.00000005    0.01159490
     atom    2 type  2   force =     0.00000000    0.00000000    0.00000000
     atom    3 type  2   force =     0.00000000    0.00000000    0.00000000
     The Hubbard contrib.    to forces
     atom    1 type  1   force =     0.00000000    0.00000000    0.00000000
     atom    2 type  2   force =     0.00000000    0.00000000    0.00000000
     atom    3 type  2   force =     0.00000000    0.00000000    0.00000000
     The SCF correction term to forces
     atom    1 type  1   force =    -0.00001070   -0.00000037    0.00018749
     atom    2 type  2   force =    -0.00000030   -0.00000184    0.00001026
     atom    3 type  2   force =    -0.00000148    0.00000220    0.00001082

     Total force =     0.000128     Total SCF correction =     0.000188
     SCF correction compared to forces is large: reduce conv_thr to get better values

     Writing all to output data dir tmpdir/pwscf.save/
 
     init_run     :      6.74s CPU      8.45s WALL (       1 calls)
     electrons    :     79.44s CPU     95.59s WALL (       1 calls)
     forces       :      4.40s CPU      5.55s WALL (       1 calls)

     Called by init_run:
     wfcinit      :      0.39s CPU      0.48s WALL (       1 calls)
     potinit      :      1.88s CPU      2.26s WALL (       1 calls)
     hinit0       :      0.50s CPU      0.62s WALL (       1 calls)

     Called by electrons:
     c_bands      :     13.31s CPU     14.56s WALL (       9 calls)
     sum_band     :     31.44s CPU     36.97s WALL (       9 calls)
     v_of_rho     :     14.06s CPU     16.84s WALL (      10 calls)
     newd         :     18.08s CPU     25.32s WALL (      10 calls)
     mix_rho      :      3.97s CPU      4.31s WALL (       9 calls)

     Called by c_bands:
     init_us_2    :      0.20s CPU      0.20s WALL (      19 calls)
     init_us_2:cp :      0.20s CPU      0.20s WALL (      19 calls)
     cegterg      :     12.92s CPU     14.17s WALL (       9 calls)

     Called by *egterg:
     cdiaghg      :      0.01s CPU      0.01s WALL (      47 calls)
     h_psi        :     11.73s CPU     13.04s WALL (      48 calls)
     s_psi        :      0.17s CPU      0.18s WALL (      48 calls)
     g_psi        :      0.04s CPU      0.04s WALL (      38 calls)

     Called by h_psi:
     h_psi:calbec :      0.18s CPU      0.21s WALL (      48 calls)
     vloc_psi     :     11.30s CPU     12.59s WALL (      48 calls)
     add_vuspsi   :      0.18s CPU      0.19s WALL (      48 calls)

     General routines
     calbec       :      0.24s CPU      0.27s WALL (      61 calls)
     fft          :     12.79s CPU     16.23s WALL (     139 calls)
     ffts         :      0.64s CPU      0.79s WALL (      19 calls)
     fftw         :      9.14s CPU     10.41s WALL (     552 calls)
     interpolate  :      1.37s CPU      1.65s WALL (      10 calls)
 
     Parallel routines
 
     PWSCF        :   1m30.69s CPU   1m49.90s WALL

 
   This run was terminated on:  17: 9:52   8Nov2023            

=------------------------------------------------------------------------------=
   JOB DONE.
=------------------------------------------------------------------------------=
