[0] MPI startup(): I_MPI_TCP_NETMASK variable has been removed from the product, its value is ignored


     Program PWSCF v.7.2 starts on 12Mar2024 at 18:26:39 

     This program is part of the open-source Quantum ESPRESSO suite
     for quantum simulation of materials; please cite
         "P. Giannozzi et al., J. Phys.:Condens. Matter 21 395502 (2009);
         "P. Giannozzi et al., J. Phys.:Condens. Matter 29 465901 (2017);
         "P. Giannozzi et al., J. Chem. Phys. 152 154105 (2020);
          URL http://www.quantum-espresso.org", 
     in publications or presentations arising from this work. More details at
     http://www.quantum-espresso.org/quote

     Parallel version (MPI), running on    16 processors

     MPI processes distributed on     1 nodes
     31550 MiB available memory on the printing compute node when the environment starts
 
     Reading input from espresso.pwi
Warning: card &CELL ignored
Warning: card / ignored

     Current dimensions of program PWSCF are:
     Max number of different atomic species (ntypx) = 10
     Max number of k-points (npk) =  40000
     Max angular momentum in pseudopotentials (lmaxx) =  4
     Presently no symmetry can be used with electric field


     IMPORTANT: XC functional enforced from input :
     Exchange-correlation= VDW-DF2-B86R
                           (   1   4  26   0   2   0   0)
     Any further DFT definition will be discarded
     Please, verify this is what you really want

 
     R & G space division:  proc/nbgrp/npool/nimage =      16
     Subspace diagonalization in iterative solution of the eigenvalue problem:
     a serial algorithm will be used

 
     Parallelization info
     --------------------
     sticks:   dense  smooth     PW     G-vecs:    dense   smooth      PW
     Min          67      34     10                 7115     2515     444
     Max          68      36     11                 7126     2519     463
     Sum        1085     551    167               113933    40273    7201
 
     Using Slab Decomposition
 


     bravais-lattice index     =            0
     lattice parameter (alat)  =       5.6973  a.u.
     unit-cell volume          =     642.1518 (a.u.)^3
     number of atoms/cell      =            4
     number of atomic types    =            2
     number of electrons       =         8.00
     number of Kohn-Sham states=            8
     kinetic-energy cutoff     =      60.0000  Ry
     charge density cutoff     =     480.0000  Ry
     scf convergence threshold =      1.0E-06
     mixing beta               =       0.7000
     number of iterations used =            8  plain     mixing
     Exchange-correlation= VDW-DF2-B86R
                           (   1   4  26   0   2   0   0)

     celldm(1)=   5.697334  celldm(2)=   0.000000  celldm(3)=   0.000000
     celldm(4)=   0.000000  celldm(5)=   0.000000  celldm(6)=   0.000000

     crystal axes: (cart. coord. in units of alat)
               a(1) = (   0.999994  -0.003591   0.000000 )  
               a(2) = (   0.503167   0.875437   0.000000 )  
               a(3) = (   0.000000   0.000000   3.958265 )  

     reciprocal axes: (cart. coord. in units 2 pi/alat)
               b(1) = (  0.997946 -0.573581  0.000000 )  
               b(2) = (  0.004094  1.139933  0.000000 )  
               b(3) = (  0.000000  0.000000  0.252636 )  


     PseudoPot. # 1 for B  read from file:
     /home/krojas/QE/pseudo/b_pbe_v1.4.uspp.F.UPF
     MD5 check sum: cc6de2960df11db49a60e589f9ebb39b
     Pseudo is Ultrasoft + core correction, Zval =  3.0
     Generated by new atomic code, or converted to UPF format
     Using radial grid of  781 points,  4 beta functions with: 
                l(1) =   0
                l(2) =   0
                l(3) =   1
                l(4) =   1
     Q(r) pseudized with  8 coefficients,  rinner =    1.100   1.100   1.100


     PseudoPot. # 2 for H  read from file:
     /home/krojas/QE/pseudo/h_pbe_v1.4.uspp.F.UPF
     MD5 check sum: 761ae9a214b05c3daf00ab9f6b793d6f
     Pseudo is Ultrasoft, Zval =  1.0
     Generated by new atomic code, or converted to UPF format
     Using radial grid of  615 points,  2 beta functions with: 
                l(1) =   0
                l(2) =   0
     Q(r) pseudized with  8 coefficients,  rinner =    0.700

     atomic species   valence    mass     pseudopotential
        B              3.00    10.81000     B ( 1.00)
        H              1.00     1.00800     H ( 1.00)

     No symmetry found



   Cartesian axes

     site n.     atom                  positions (alat units)
         1           B   tau(   1) = (   0.0000000   0.0000000   1.9791325  )
         2           B   tau(   2) = (   0.5009657   0.2715580   1.9791325  )
         3           H   tau(   3) = (   0.5020846   0.5735104   2.2998349  )
         4           H   tau(   4) = (   0.5020846   0.5735104   1.6617470  )

     number of k points=    74  Gaussian smearing, width (Ry)=  0.0100
                       cart. coord. in units 2pi/alat
        k(    1) = (   0.0000000   0.0000000   0.0000000), wk =   0.0138889
        k(    2) = (   0.0003412   0.0949944   0.0000000), wk =   0.0277778
        k(    3) = (   0.0006823   0.1899889   0.0000000), wk =   0.0277778
        k(    4) = (   0.0010235   0.2849833   0.0000000), wk =   0.0277778
        k(    5) = (   0.0013646   0.3799777   0.0000000), wk =   0.0277778
        k(    6) = (   0.0017058   0.4749722   0.0000000), wk =   0.0277778
        k(    7) = (  -0.0020470  -0.5699666   0.0000000), wk =   0.0138889
        k(    8) = (   0.0831622  -0.0477984   0.0000000), wk =   0.0277778
        k(    9) = (   0.0835034   0.0471960   0.0000000), wk =   0.0277778
        k(   10) = (   0.0838445   0.1421905   0.0000000), wk =   0.0277778
        k(   11) = (   0.0841857   0.2371849   0.0000000), wk =   0.0277778
        k(   12) = (   0.0845269   0.3321793   0.0000000), wk =   0.0277778
        k(   13) = (   0.0848680   0.4271738   0.0000000), wk =   0.0277778
        k(   14) = (   0.0811152  -0.6177650   0.0000000), wk =   0.0277778
        k(   15) = (   0.0814564  -0.5227706   0.0000000), wk =   0.0277778
        k(   16) = (   0.0817976  -0.4277762   0.0000000), wk =   0.0277778
        k(   17) = (   0.0821387  -0.3327817   0.0000000), wk =   0.0277778
        k(   18) = (   0.0824799  -0.2377873   0.0000000), wk =   0.0277778
        k(   19) = (   0.0828210  -0.1427928   0.0000000), wk =   0.0277778
        k(   20) = (   0.1663244  -0.0955968   0.0000000), wk =   0.0277778
        k(   21) = (   0.1666656  -0.0006024   0.0000000), wk =   0.0277778
        k(   22) = (   0.1670067   0.0943921   0.0000000), wk =   0.0277778
        k(   23) = (   0.1673479   0.1893865   0.0000000), wk =   0.0277778
        k(   24) = (   0.1676891   0.2843809   0.0000000), wk =   0.0277778
        k(   25) = (   0.1680302   0.3793754   0.0000000), wk =   0.0277778
        k(   26) = (   0.1642774  -0.6655634   0.0000000), wk =   0.0277778
        k(   27) = (   0.1646186  -0.5705690   0.0000000), wk =   0.0277778
        k(   28) = (   0.1649598  -0.4755746   0.0000000), wk =   0.0277778
        k(   29) = (   0.1653009  -0.3805801   0.0000000), wk =   0.0277778
        k(   30) = (   0.1656421  -0.2855857   0.0000000), wk =   0.0277778
        k(   31) = (   0.1659833  -0.1905913   0.0000000), wk =   0.0277778
        k(   32) = (   0.2494866  -0.1433952   0.0000000), wk =   0.0277778
        k(   33) = (   0.2498278  -0.0484008   0.0000000), wk =   0.0277778
        k(   34) = (   0.2501689   0.0465936   0.0000000), wk =   0.0277778
        k(   35) = (   0.2505101   0.1415881   0.0000000), wk =   0.0277778
        k(   36) = (   0.2508513   0.2365825   0.0000000), wk =   0.0277778
        k(   37) = (   0.2511924   0.3315769   0.0000000), wk =   0.0277778
        k(   38) = (   0.2474397  -0.7133618   0.0000000), wk =   0.0277778
        k(   39) = (   0.2477808  -0.6183674   0.0000000), wk =   0.0277778
        k(   40) = (   0.2481220  -0.5233730   0.0000000), wk =   0.0277778
        k(   41) = (   0.2484631  -0.4283785   0.0000000), wk =   0.0277778
        k(   42) = (   0.2488043  -0.3333841   0.0000000), wk =   0.0277778
        k(   43) = (   0.2491455  -0.2383897   0.0000000), wk =   0.0277778
        k(   44) = (   0.3326488  -0.1911936   0.0000000), wk =   0.0277778
        k(   45) = (   0.3329900  -0.0961992   0.0000000), wk =   0.0277778
        k(   46) = (   0.3333312  -0.0012048   0.0000000), wk =   0.0277778
        k(   47) = (   0.3336723   0.0937897   0.0000000), wk =   0.0277778
        k(   48) = (   0.3340135   0.1887841   0.0000000), wk =   0.0277778
        k(   49) = (   0.3343546   0.2837785   0.0000000), wk =   0.0277778
        k(   50) = (   0.3306019  -0.7611603   0.0000000), wk =   0.0277778
        k(   51) = (   0.3309430  -0.6661658   0.0000000), wk =   0.0277778
        k(   52) = (   0.3312842  -0.5711714   0.0000000), wk =   0.0277778
        k(   53) = (   0.3316253  -0.4761769   0.0000000), wk =   0.0277778
        k(   54) = (   0.3319665  -0.3811825   0.0000000), wk =   0.0277778
        k(   55) = (   0.3323077  -0.2861881   0.0000000), wk =   0.0277778
        k(   56) = (   0.4158110  -0.2389921   0.0000000), wk =   0.0277778
        k(   57) = (   0.4161522  -0.1439976   0.0000000), wk =   0.0277778
        k(   58) = (   0.4164934  -0.0490032   0.0000000), wk =   0.0277778
        k(   59) = (   0.4168345   0.0459913   0.0000000), wk =   0.0277778
        k(   60) = (   0.4171757   0.1409857   0.0000000), wk =   0.0277778
        k(   61) = (   0.4175169   0.2359801   0.0000000), wk =   0.0277778
        k(   62) = (   0.4137641  -0.8089587   0.0000000), wk =   0.0277778
        k(   63) = (   0.4141052  -0.7139642   0.0000000), wk =   0.0277778
        k(   64) = (   0.4144464  -0.6189698   0.0000000), wk =   0.0277778
        k(   65) = (   0.4147876  -0.5239754   0.0000000), wk =   0.0277778
        k(   66) = (   0.4151287  -0.4289809   0.0000000), wk =   0.0277778
        k(   67) = (   0.4154699  -0.3339865   0.0000000), wk =   0.0277778
        k(   68) = (  -0.4989732   0.2867905   0.0000000), wk =   0.0138889
        k(   69) = (  -0.4986321   0.3817849   0.0000000), wk =   0.0277778
        k(   70) = (  -0.4982909   0.4767793   0.0000000), wk =   0.0277778
        k(   71) = (  -0.4979498   0.5717738   0.0000000), wk =   0.0277778
        k(   72) = (  -0.4976086   0.6667682   0.0000000), wk =   0.0277778
        k(   73) = (  -0.4972674   0.7617626   0.0000000), wk =   0.0277778
        k(   74) = (  -0.5010202  -0.2831762   0.0000000), wk =   0.0138889

     Dense  grid:   113933 G-vectors     FFT dimensions: (  40,  45, 160)

     Smooth grid:    40273 G-vectors     FFT dimensions: (  30,  30, 120)

     Estimated max dynamical RAM per process >      13.53 MB

     Estimated total dynamical RAM >     216.40 MB

     Initial potential from superposition of free atoms

     starting charge       7.9994, renormalised to       8.0000

     negative rho (up, down):  1.273E-05 0.000E+00


     %%%%%%%%%%%%%%%%%%%%%%%%%%%%%%%%%%%%%%%%%%%%%%%%%%%%%%%%%%%%%%%%%%%%%%%%
     %                                                                      %
     % You are using vdW-DF, which was implemented by the Thonhauser group. %
     % Please cite the following two papers that made this development      %
     % possible and the two reviews that describe the various versions:     %
     %                                                                      %
     %   T. Thonhauser et al., PRL 115, 136402 (2015).                      %
     %   T. Thonhauser et al., PRB 76, 125112 (2007).                       %
     %   K. Berland et al., Rep. Prog. Phys. 78, 066501 (2015).             %
     %   D.C. Langreth et al., J. Phys.: Condens. Matter 21, 084203 (2009). %
     %                                                                      %
     % If you are calculating stress with vdW-DF, please also cite:         %
     %                                                                      %
     %   R. Sabatini et al., J. Phys.: Condens. Matter 24, 424209 (2012).   %
     %                                                                      %
     %%%%%%%%%%%%%%%%%%%%%%%%%%%%%%%%%%%%%%%%%%%%%%%%%%%%%%%%%%%%%%%%%%%%%%%%

     %%%%%%%%%%%%%%%%%%%%%%%%%%%%%%%%%%%%%%%%%%%%%%%%%%%%%%%%%%%%%%%%%%%%%%%%
     %                                                                      %
     %  vdW-DF NEWS:                                                        %
     %                                                                      %
     %  * vdW-DF3 is now available. DOI: 10.1021/acs.jctc.0c00471           %
     %    use with input_dft = 'vdW-DF3-opt1' or 'vdW-DF3-opt2'             %
     %                                                                      %
     %  * Unscreened and range-separated hybrid vdW-DF-cx functionals       %
     %    DOI: 10.1063/1.4986522 and 10.1088/1361-648X/ac2ad2               %
     %    use with input_dft = 'vdW-DF-cx0'    and 'vdW-DF-ahcx'            %
     %  * Unscreened and range-separated hybrid vdW-DF2-b86r functionals    %
     %    DOI: 10.1063/1.4986522 and DOI: 10.1103/PhysRevX.12.041003        %
     %    use with input_dft = 'vdW-DF2-br0' and 'vdW-DF2-ahbr'             %
     %                                                                      %
     %%%%%%%%%%%%%%%%%%%%%%%%%%%%%%%%%%%%%%%%%%%%%%%%%%%%%%%%%%%%%%%%%%%%%%%%


 
     Adding external electric field

     Computed dipole along edir(3) : 
        Dipole               -0.0000 Ry au,         -0.0000 Debye
        Dipole field         -0.0000 Ry au, 
 
        Potential amp.        0.0000 Ry
        Total length         22.5493 bohr
 
     Starting wfcs are   10 randomized atomic wfcs

     total cpu time spent up to now is       14.4 secs

     Self-consistent Calculation

     iteration #  1     ecut=    60.00 Ry     beta= 0.70
     Davidson diagonalization with overlap
     ethr =  1.00E-02,  avg # of iterations =  3.8

     negative rho (up, down):  1.282E-05 0.000E+00
 
     Adding external electric field

     Computed dipole along edir(3) : 
        Dipole                0.0054 Ry au,          0.0137 Debye
        Dipole field          0.0001 Ry au, 
 
        Potential amp.       -0.0048 Ry
        Total length         22.5493 bohr
 

     total cpu time spent up to now is       15.1 secs

     total energy              =     -15.04583034 Ry
     estimated scf accuracy    <       0.32949836 Ry

     iteration #  2     ecut=    60.00 Ry     beta= 0.70
     Davidson diagonalization with overlap
     ethr =  4.12E-03,  avg # of iterations =  3.8

     negative rho (up, down):  2.202E-05 0.000E+00
 
     Adding external electric field

     Computed dipole along edir(3) : 
        Dipole               -0.0094 Ry au,         -0.0240 Debye
        Dipole field         -0.0002 Ry au, 
 
        Potential amp.        0.0083 Ry
        Total length         22.5493 bohr
 

     total cpu time spent up to now is       15.8 secs

     total energy              =     -15.10085711 Ry
     estimated scf accuracy    <       0.01851490 Ry

     iteration #  3     ecut=    60.00 Ry     beta= 0.70
     Davidson diagonalization with overlap
     ethr =  2.31E-04,  avg # of iterations =  5.2

     negative rho (up, down):  3.109E-05 0.000E+00
 
     Adding external electric field

     Computed dipole along edir(3) : 
        Dipole                0.0187 Ry au,          0.0474 Debye
        Dipole field          0.0004 Ry au, 
 
        Potential amp.       -0.0165 Ry
        Total length         22.5493 bohr
 

     total cpu time spent up to now is       16.6 secs

     total energy              =     -15.10405442 Ry
     estimated scf accuracy    <       0.00069542 Ry

     iteration #  4     ecut=    60.00 Ry     beta= 0.70
     Davidson diagonalization with overlap
     ethr =  8.69E-06,  avg # of iterations =  5.9

     negative rho (up, down):  3.188E-05 0.000E+00
 
     Adding external electric field

     Computed dipole along edir(3) : 
        Dipole               -0.0018 Ry au,         -0.0046 Debye
        Dipole field         -0.0000 Ry au, 
 
        Potential amp.        0.0016 Ry
        Total length         22.5493 bohr
 

     total cpu time spent up to now is       17.4 secs

     total energy              =     -15.10411280 Ry
     estimated scf accuracy    <       0.00056449 Ry

     iteration #  5     ecut=    60.00 Ry     beta= 0.70
     Davidson diagonalization with overlap
     ethr =  7.06E-06,  avg # of iterations =  2.9

     negative rho (up, down):  3.354E-05 0.000E+00
 
     Adding external electric field

     Computed dipole along edir(3) : 
        Dipole               -0.0004 Ry au,         -0.0010 Debye
        Dipole field         -0.0000 Ry au, 
 
        Potential amp.        0.0004 Ry
        Total length         22.5493 bohr
 

     total cpu time spent up to now is       18.0 secs

     total energy              =     -15.10422030 Ry
     estimated scf accuracy    <       0.00000581 Ry

     iteration #  6     ecut=    60.00 Ry     beta= 0.70
     Davidson diagonalization with overlap
     ethr =  7.27E-08,  avg # of iterations =  2.1

     negative rho (up, down):  3.391E-05 0.000E+00
 
     Adding external electric field

     Computed dipole along edir(3) : 
        Dipole                0.0002 Ry au,          0.0006 Debye
        Dipole field          0.0000 Ry au, 
 
        Potential amp.       -0.0002 Ry
        Total length         22.5493 bohr
 

     total cpu time spent up to now is       18.6 secs

     End of self-consistent calculation

          k = 0.0000 0.0000 0.0000 (  5017 PWs)   bands (ev):

   -14.5618  -8.8639  -3.1247  -0.6566   0.5726   1.9355   2.9104   5.5808

          k = 0.0003 0.0950 0.0000 (  4979 PWs)   bands (ev):

   -14.4634  -8.7462  -3.5109  -0.9035   0.6965   2.0763   3.0387   5.6914

          k = 0.0007 0.1900 0.0000 (  4988 PWs)   bands (ev):

   -14.1735  -8.3986  -4.4971  -1.4700   1.0826   2.4798   3.4300   3.9637

          k = 0.0010 0.2850 0.0000 (  5020 PWs)   bands (ev):

   -13.7102  -7.8408  -5.7609  -2.0861   1.7321   1.8977   3.3030   4.0573

          k = 0.0014 0.3800 0.0000 (  5038 PWs)   bands (ev):

   -13.1203  -7.1254  -7.0338  -2.5927   0.1792   2.6044   4.2687   4.6411

          k = 0.0017 0.4750 0.0000 (  5038 PWs)   bands (ev):

   -12.5287  -8.0749  -6.3928  -2.9170  -1.1791   3.4875   4.9129   5.5272

          k =-0.0020-0.5700 0.0000 (  5036 PWs)   bands (ev):

   -12.2421  -8.5164  -6.0305  -3.0280  -1.7532   3.8163   5.6248   6.1176

          k = 0.0832-0.0478 0.0000 (  5007 PWs)   bands (ev):

   -14.4636  -8.7632  -3.4018  -1.0435   0.7091   2.0764   3.0524   5.6501

          k = 0.0835 0.0472 0.0000 (  5007 PWs)   bands (ev):

   -14.4636  -8.7632  -3.4018  -1.0434   0.7091   2.0764   3.0524   5.6506

          k = 0.0838 0.1422 0.0000 (  5003 PWs)   bands (ev):

   -14.2696  -8.5322  -4.0911  -1.4481   0.9642   2.3505   3.3139   4.8448

          k = 0.0842 0.2372 0.0000 (  5010 PWs)   bands (ev):

   -13.8929  -8.0824  -5.1858  -2.0868   1.4875   2.6128   3.2072   3.8413

          k = 0.0845 0.3322 0.0000 (  5029 PWs)   bands (ev):

   -13.3636  -7.4471  -6.4177  -2.7073   1.0158   2.2663   3.8491   4.5762

          k = 0.0849 0.4272 0.0000 (  5030 PWs)   bands (ev):

   -12.7584  -7.5615  -6.7130  -3.1640  -0.5096   3.2269   4.9585   5.1315

          k = 0.0811-0.6178 0.0000 (  5055 PWs)   bands (ev):

   -12.2799  -8.3284  -6.1230  -3.4012  -1.5055   4.0288   5.5533   6.2874

          k = 0.0815-0.5228 0.0000 (  5055 PWs)   bands (ev):

   -12.2798  -8.3284  -6.1230  -3.4012  -1.5055   4.0288   5.5534   6.2873

          k = 0.0818-0.4278 0.0000 (  5030 PWs)   bands (ev):

   -12.7584  -7.5616  -6.7130  -3.1640  -0.5095   3.2269   4.9586   5.1315

          k = 0.0821-0.3328 0.0000 (  5029 PWs)   bands (ev):

   -13.3636  -7.4471  -6.4177  -2.7074   1.0159   2.2663   3.8492   4.5762

          k = 0.0825-0.2378 0.0000 (  5010 PWs)   bands (ev):

   -13.8929  -8.0824  -5.1857  -2.0869   1.4875   2.6129   3.2073   3.8413

          k = 0.0828-0.1428 0.0000 (  5003 PWs)   bands (ev):

   -14.2696  -8.5322  -4.0909  -1.4483   0.9642   2.3506   3.3139   4.8451

          k = 0.1663-0.0956 0.0000 (  5007 PWs)   bands (ev):

   -14.1753  -8.4714  -4.1550  -1.9107   1.1242   2.4873   3.4811   5.3111

          k = 0.1667-0.0006 0.0000 (  4991 PWs)   bands (ev):

   -14.2704  -8.5827  -3.8014  -1.8172   0.9950   2.3565   3.3491   5.9680

          k = 0.1670 0.0944 0.0000 (  5007 PWs)   bands (ev):

   -14.1753  -8.4714  -4.1552  -1.9103   1.1242   2.4873   3.4810   5.3108

          k = 0.1673 0.1894 0.0000 (  5031 PWs)   bands (ev):

   -13.8957  -8.1439  -4.9681  -2.3654   1.5164   2.7855   3.7075   3.8808

          k = 0.1677 0.2844 0.0000 (  5037 PWs)   bands (ev):

   -13.4526  -7.6243  -5.9617  -3.0916   1.7693   2.1761   3.7430   4.5498

          k = 0.1680 0.3794 0.0000 (  5046 PWs)   bands (ev):

   -12.8970  -6.9924  -6.9654  -3.7638   0.2906   3.0760   4.6667   5.4255

          k = 0.1643-0.6656 0.0000 (  5071 PWs)   bands (ev):

   -12.3559  -7.8492  -6.3323  -4.1995  -0.8713   4.1095   5.7950   6.1303

          k = 0.1646-0.5706 0.0000 (  5067 PWs)   bands (ev):

   -12.1032  -8.2166  -6.0329  -4.3472  -1.3486   4.7337   6.5121   6.5576

          k = 0.1650-0.4756 0.0000 (  5071 PWs)   bands (ev):

   -12.3558  -7.8492  -6.3323  -4.1996  -0.8713   4.1096   5.7952   6.1303

          k = 0.1653-0.3806 0.0000 (  5048 PWs)   bands (ev):

   -12.8970  -6.9923  -6.9654  -3.7639   0.2907   3.0761   4.6668   5.4255

          k = 0.1656-0.2856 0.0000 (  5037 PWs)   bands (ev):

   -13.4525  -7.6243  -5.9616  -3.0918   1.7695   2.1761   3.7431   4.5499

          k = 0.1660-0.1906 0.0000 (  5031 PWs)   bands (ev):

   -13.8957  -8.1439  -4.9679  -2.3658   1.5165   2.7856   3.7077   3.8808

          k = 0.2495-0.1434 0.0000 (  5031 PWs)   bands (ev):

   -13.7198  -8.0232  -5.2250  -2.7886   1.8194   2.9926   3.9847   4.1930

          k = 0.2498-0.0484 0.0000 (  5026 PWs)   bands (ev):

   -13.8982  -8.2249  -4.6056  -2.8178   1.5563   2.8940   3.9292   5.1283

          k = 0.2502 0.0466 0.0000 (  5026 PWs)   bands (ev):

   -13.8982  -8.2249  -4.6059  -2.8175   1.5563   2.8939   3.9292   5.1279

          k = 0.2505 0.1416 0.0000 (  5031 PWs)   bands (ev):

   -13.7199  -8.0232  -5.2254  -2.7880   1.8193   2.9925   3.9842   4.1930

          k = 0.2509 0.2366 0.0000 (  5038 PWs)   bands (ev):

   -13.3783  -7.6377  -5.9885  -3.2561   2.1721   2.3445   3.9608   4.7146

          k = 0.2512 0.3316 0.0000 (  5053 PWs)   bands (ev):

   -12.9122  -7.1134  -6.7185  -4.0808   0.9515   3.1241   4.6954   5.5206

          k = 0.2474-0.7134 0.0000 (  5056 PWs)   bands (ev):

   -12.4081  -7.3567  -6.5485  -4.8483  -0.1011   4.1067   5.5584   6.4798

          k = 0.2478-0.6184 0.0000 (  5062 PWs)   bands (ev):

   -12.0427  -7.7813  -6.1423  -5.2820  -0.7556   5.0607   5.9176   6.9752

          k = 0.2481-0.5234 0.0000 (  5062 PWs)   bands (ev):

   -12.0427  -7.7813  -6.1423  -5.2820  -0.7555   5.0608   5.9175   6.9753

          k = 0.2485-0.4284 0.0000 (  5056 PWs)   bands (ev):

   -12.4080  -7.3566  -6.5485  -4.8485  -0.1009   4.1068   5.5584   6.4800

          k = 0.2488-0.3334 0.0000 (  5053 PWs)   bands (ev):

   -12.9122  -7.1134  -6.7183  -4.0811   0.9517   3.1242   4.6952   5.5206

          k = 0.2491-0.2384 0.0000 (  5038 PWs)   bands (ev):

   -13.3783  -7.6376  -5.9882  -3.2566   2.1724   2.3446   3.9609   4.7147

          k = 0.3326-0.1912 0.0000 (  5036 PWs)   bands (ev):

   -13.1533  -7.4948  -6.3900  -3.4446   2.1779   2.7801   4.4022   4.7475

          k = 0.3330-0.0962 0.0000 (  5043 PWs)   bands (ev):

   -13.3838  -7.7391  -5.6937  -3.6215   2.3890   3.1607   4.0599   4.7882

          k = 0.3333-0.0012 0.0000 (  5043 PWs)   bands (ev):

   -13.4639  -7.8242  -5.2591  -3.9296   2.2563   3.5403   4.1763   4.6543

          k = 0.3337 0.0938 0.0000 (  5043 PWs)   bands (ev):

   -13.3838  -7.7391  -5.6941  -3.6209   2.3889   3.1603   4.0598   4.7880

          k = 0.3340 0.1888 0.0000 (  5036 PWs)   bands (ev):

   -13.1534  -7.4948  -6.3904  -3.4439   2.1774   2.7800   4.4020   4.7476

          k = 0.3344 0.2838 0.0000 (  5056 PWs)   bands (ev):

   -12.8060  -7.1285  -6.9700  -3.9013   1.2392   3.4165   5.0482   5.1234

          k = 0.3306-0.7612 0.0000 (  5051 PWs)   bands (ev):

   -12.4100  -7.3207  -6.7114  -4.7906   0.5009   4.2666   5.7247   6.3058

          k = 0.3309-0.6662 0.0000 (  5056 PWs)   bands (ev):

   -12.0798  -7.3930  -6.3631  -5.6831   0.0179   5.1604   5.5033   7.1299

          k = 0.3313-0.5712 0.0000 (  5049 PWs)   bands (ev):

   -11.9485  -7.3238  -6.2236  -6.1133  -0.1536   5.2407   5.5889   7.5041

          k = 0.3316-0.4762 0.0000 (  5056 PWs)   bands (ev):

   -12.0797  -7.3928  -6.3631  -5.6834   0.0181   5.1606   5.5031   7.1301

          k = 0.3320-0.3812 0.0000 (  5051 PWs)   bands (ev):

   -12.4099  -7.3204  -6.7114  -4.7911   0.5012   4.2668   5.7247   6.3049

          k = 0.3323-0.2862 0.0000 (  5056 PWs)   bands (ev):

   -12.8059  -7.1285  -6.9697  -3.9019   1.2397   3.4167   5.0483   5.1224

          k = 0.4158-0.2390 0.0000 (  5035 PWs)   bands (ev):

   -12.6105  -7.3544  -7.0301  -3.8364   1.1993   3.9499   4.5535   5.6282

          k = 0.4162-0.1440 0.0000 (  5059 PWs)   bands (ev):

   -12.8142  -7.2235  -6.7980  -4.1134   1.9225   3.4656   4.9616   5.1755

          k = 0.4165-0.0490 0.0000 (  5060 PWs)   bands (ev):

   -12.9311  -7.3338  -6.1145  -4.7711   2.7397   3.2091   4.3801   5.6435

          k = 0.4168 0.0460 0.0000 (  5060 PWs)   bands (ev):

   -12.9312  -7.3338  -6.1148  -4.7706   2.7393   3.2091   4.3802   5.6435

          k = 0.4172 0.1410 0.0000 (  5059 PWs)   bands (ev):

   -12.8143  -7.2236  -6.7984  -4.1127   1.9220   3.4655   4.9615   5.1764

          k = 0.4175 0.2360 0.0000 (  5035 PWs)   bands (ev):

   -12.6106  -7.3548  -7.0301  -3.8358   1.1988   3.9497   4.5543   5.6282

          k = 0.4138-0.8090 0.0000 (  5051 PWs)   bands (ev):

   -12.3804  -7.6097  -6.8060  -4.2528   0.7676   4.5835   5.0324   6.3421

          k = 0.4141-0.7140 0.0000 (  5056 PWs)   bands (ev):

   -12.1964  -7.4822  -6.6140  -5.1410   0.6458   5.1289   5.7529   6.2751

          k = 0.4144-0.6190 0.0000 (  5053 PWs)   bands (ev):

   -12.1022  -6.9683  -6.5058  -6.1199   0.7033   4.9393   5.2357   7.2678

          k = 0.4148-0.5240 0.0000 (  5053 PWs)   bands (ev):

   -12.1022  -6.9679  -6.5058  -6.1203   0.7035   4.9391   5.2358   7.2678

          k = 0.4151-0.4290 0.0000 (  5056 PWs)   bands (ev):

   -12.1963  -7.4818  -6.6140  -5.1415   0.6461   5.1291   5.7525   6.2742

          k = 0.4155-0.3340 0.0000 (  5051 PWs)   bands (ev):

   -12.3803  -7.6093  -6.8060  -4.2535   0.7681   4.5836   5.0316   6.3421

          k =-0.4990 0.2868 0.0000 (  5038 PWs)   bands (ev):

   -12.3625  -7.7522  -6.8362  -3.9664   0.8210   4.4680   4.8646   6.2573

          k =-0.4986 0.3818 0.0000 (  5049 PWs)   bands (ev):

   -12.3853  -7.5531  -6.8478  -4.3208   1.0024   4.6387   5.0141   6.1725

          k =-0.4983 0.4768 0.0000 (  5054 PWs)   bands (ev):

   -12.4293  -7.0038  -6.8704  -5.1421   1.4520   4.3451   5.1626   6.3543

          k =-0.4979 0.5718 0.0000 (  5075 PWs)   bands (ev):

   -12.4505  -6.8824  -6.3998  -5.8662   1.7573   4.2334   4.6274   6.7003

          k =-0.4976 0.6668 0.0000 (  5054 PWs)   bands (ev):

   -12.4294  -7.0042  -6.8705  -5.1416   1.4516   4.3450   5.1629   6.3552

          k =-0.4973 0.7618 0.0000 (  5049 PWs)   bands (ev):

   -12.3855  -7.5535  -6.8479  -4.3202   1.0019   4.6386   5.0150   6.1726

          k =-0.5010-0.2832 0.0000 (  5038 PWs)   bands (ev):

   -12.3626  -7.7526  -6.8362  -3.9657   0.8204   4.4688   4.8644   6.2572

     the Fermi energy is    -1.2564 ev

!    total energy              =     -15.10422174 Ry
     estimated scf accuracy    <       0.00000033 Ry
     smearing contrib. (-TS)   =      -0.00015357 Ry
     internal energy E=F+TS    =     -15.10406817 Ry

     The total energy is F=E-TS. E is the sum of the following terms:
     one-electron contribution =     -65.70705074 Ry
     hartree contribution      =      34.41184529 Ry
     xc contribution           =      -7.34290075 Ry
     ewald contribution        =      23.53403803 Ry
     electric field correction =       0.00000000 Ry

     convergence has been achieved in   6 iterations

     negative rho (up, down):  3.391E-05 0.000E+00

     Forces acting on atoms (cartesian axes, Ry/au):

     atom    1 type  1   force =    -0.00001656    0.00521106    0.00221281
     atom    2 type  1   force =     0.00002143   -0.00518663    0.00221289
     atom    3 type  2   force =    -0.00000272   -0.00001215    0.00199142
     atom    4 type  2   force =    -0.00000215   -0.00001228   -0.00641711
     The non-local contrib.  to forces
     atom    1 type  1   force =    -0.00129689   -0.35090930    0.00240816
     atom    2 type  1   force =     0.00131887    0.35095133    0.00240832
     atom    3 type  2   force =    -0.00000770    0.00000423   -0.11383910
     atom    4 type  2   force =    -0.00000756    0.00000452    0.11535707
     The ionic contribution  to forces
     atom    1 type  1   force =     0.00246890    0.70483078    0.00119426
     atom    2 type  1   force =    -0.00256546   -0.70474582    0.00119282
     atom    3 type  2   force =     0.00004773   -0.00004178    2.57799856
     atom    4 type  2   force =     0.00004882   -0.00004318   -2.58038563
     The local contribution  to forces
     atom    1 type  1   force =    -0.00121838   -0.35648473   -0.00166259
     atom    2 type  1   force =     0.00129808    0.35638455   -0.00166159
     atom    3 type  2   force =    -0.00004261    0.00002472   -2.46229442
     atom    4 type  2   force =    -0.00004339    0.00002537    2.45857031
     The core correction contribution to forces
     atom    1 type  1   force =     0.00002853    0.00757743   -0.00011378
     atom    2 type  1   force =    -0.00002866   -0.00757955   -0.00011369
     atom    3 type  2   force =     0.00000000    0.00000000    0.00000000
     atom    4 type  2   force =     0.00000000    0.00000000    0.00000000
     The Hubbard contrib.    to forces
     atom    1 type  1   force =     0.00000000    0.00000000    0.00000000
     atom    2 type  1   force =     0.00000000    0.00000000    0.00000000
     atom    3 type  2   force =     0.00000000    0.00000000    0.00000000
     atom    4 type  2   force =     0.00000000    0.00000000    0.00000000
     The SCF correction term to forces
     atom    1 type  1   force =     0.00000138    0.00019679    0.00039182
     atom    2 type  1   force =    -0.00000128   -0.00019722    0.00039210
     atom    3 type  2   force =    -0.00000003    0.00000059    0.00011450
     atom    4 type  2   force =     0.00000010    0.00000092    0.00002926

     Total force =     0.010440     Total SCF correction =     0.000632

     Writing all to output data dir ./TMPDIR/pwscf.save/
 
     init_run     :     14.09s CPU     14.30s WALL (       1 calls)
     electrons    :      4.02s CPU      4.29s WALL (       1 calls)
     forces       :      0.19s CPU      0.20s WALL (       1 calls)

     Called by init_run:
     wfcinit      :      0.20s CPU      0.22s WALL (       1 calls)
     potinit      :     13.73s CPU     13.89s WALL (       1 calls)
     hinit0       :      0.14s CPU      0.15s WALL (       1 calls)

     Called by electrons:
     c_bands      :      3.13s CPU      3.30s WALL (       6 calls)
     sum_band     :      0.51s CPU      0.53s WALL (       6 calls)
     v_of_rho     :     14.00s CPU     14.20s WALL (       7 calls)
     newd         :      0.03s CPU      0.05s WALL (       7 calls)
     mix_rho      :      0.01s CPU      0.01s WALL (       6 calls)
     vdW_kernel   :     13.62s CPU     13.78s WALL (       1 calls)

     Called by c_bands:
     init_us_2    :      0.08s CPU      0.08s WALL (    1036 calls)
     init_us_2:cp :      0.08s CPU      0.08s WALL (    1036 calls)
     cegterg      :      2.99s CPU      3.15s WALL (     444 calls)

     Called by *egterg:
     cdiaghg      :      0.21s CPU      0.23s WALL (    2200 calls)
     h_psi        :      2.54s CPU      2.67s WALL (    2274 calls)
     s_psi        :      0.06s CPU      0.06s WALL (    2274 calls)
     g_psi        :      0.03s CPU      0.03s WALL (    1756 calls)

     Called by h_psi:
     h_psi:calbec :      0.11s CPU      0.12s WALL (    2274 calls)
     vloc_psi     :      2.35s CPU      2.47s WALL (    2274 calls)
     add_vuspsi   :      0.06s CPU      0.06s WALL (    2274 calls)

     General routines
     calbec       :      0.15s CPU      0.15s WALL (    3014 calls)
     fft          :      0.25s CPU      0.25s WALL (     500 calls)
     ffts         :      0.00s CPU      0.00s WALL (      13 calls)
     fftw         :      2.37s CPU      2.49s WALL (   26496 calls)
     interpolate  :      0.00s CPU      0.00s WALL (       7 calls)
 
     Parallel routines
 
     PWSCF        :     18.44s CPU     19.58s WALL

 
   This run was terminated on:  18:26:58  12Mar2024            

=------------------------------------------------------------------------------=
   JOB DONE.
=------------------------------------------------------------------------------=
