[0] MPI startup(): I_MPI_TCP_NETMASK variable has been removed from the product, its value is ignored


     Program PWSCF v.7.2 starts on 12Mar2024 at 17:34:39 

     This program is part of the open-source Quantum ESPRESSO suite
     for quantum simulation of materials; please cite
         "P. Giannozzi et al., J. Phys.:Condens. Matter 21 395502 (2009);
         "P. Giannozzi et al., J. Phys.:Condens. Matter 29 465901 (2017);
         "P. Giannozzi et al., J. Chem. Phys. 152 154105 (2020);
          URL http://www.quantum-espresso.org", 
     in publications or presentations arising from this work. More details at
     http://www.quantum-espresso.org/quote

     Parallel version (MPI), running on    16 processors

     MPI processes distributed on     1 nodes
     31558 MiB available memory on the printing compute node when the environment starts
 
     Reading input from espresso.pwi
Warning: card &CELL ignored
Warning: card / ignored

     Current dimensions of program PWSCF are:
     Max number of different atomic species (ntypx) = 10
     Max number of k-points (npk) =  40000
     Max angular momentum in pseudopotentials (lmaxx) =  4
 
     R & G space division:  proc/nbgrp/npool/nimage =      16
     Subspace diagonalization in iterative solution of the eigenvalue problem:
     a serial algorithm will be used

 
     Parallelization info
     --------------------
     sticks:   dense  smooth     PW     G-vecs:    dense   smooth      PW
     Min          67      34     10                 7115     2515     444
     Max          68      36     11                 7126     2519     463
     Sum        1085     551    167               113933    40273    7201
 
     Using Slab Decomposition
 


     bravais-lattice index     =            0
     lattice parameter (alat)  =       5.6973  a.u.
     unit-cell volume          =     642.1518 (a.u.)^3
     number of atoms/cell      =            4
     number of atomic types    =            2
     number of electrons       =         8.00
     number of Kohn-Sham states=            8
     kinetic-energy cutoff     =      60.0000  Ry
     charge density cutoff     =     480.0000  Ry
     scf convergence threshold =      1.0E-06
     mixing beta               =       0.7000
     number of iterations used =            8  plain     mixing
     Exchange-correlation=  SLA  PW   PBX  PBC
                           (   1   4   3   4   0   0   0)

     celldm(1)=   5.697334  celldm(2)=   0.000000  celldm(3)=   0.000000
     celldm(4)=   0.000000  celldm(5)=   0.000000  celldm(6)=   0.000000

     crystal axes: (cart. coord. in units of alat)
               a(1) = (   0.999994  -0.003591   0.000000 )  
               a(2) = (   0.503167   0.875437   0.000000 )  
               a(3) = (   0.000000   0.000000   3.958265 )  

     reciprocal axes: (cart. coord. in units 2 pi/alat)
               b(1) = (  0.997946 -0.573581  0.000000 )  
               b(2) = (  0.004094  1.139933  0.000000 )  
               b(3) = (  0.000000  0.000000  0.252636 )  


     PseudoPot. # 1 for B  read from file:
     /home/krojas/QE/pseudo/b_pbe_v1.4.uspp.F.UPF
     MD5 check sum: cc6de2960df11db49a60e589f9ebb39b
     Pseudo is Ultrasoft + core correction, Zval =  3.0
     Generated by new atomic code, or converted to UPF format
     Using radial grid of  781 points,  4 beta functions with: 
                l(1) =   0
                l(2) =   0
                l(3) =   1
                l(4) =   1
     Q(r) pseudized with  8 coefficients,  rinner =    1.100   1.100   1.100


     PseudoPot. # 2 for H  read from file:
     /home/krojas/QE/pseudo/h_pbe_v1.4.uspp.F.UPF
     MD5 check sum: 761ae9a214b05c3daf00ab9f6b793d6f
     Pseudo is Ultrasoft, Zval =  1.0
     Generated by new atomic code, or converted to UPF format
     Using radial grid of  615 points,  2 beta functions with: 
                l(1) =   0
                l(2) =   0
     Q(r) pseudized with  8 coefficients,  rinner =    0.700

     atomic species   valence    mass     pseudopotential
        B              3.00    10.81000     B ( 1.00)
        H              1.00     1.00800     H ( 1.00)

     No symmetry found



   Cartesian axes

     site n.     atom                  positions (alat units)
         1           B   tau(   1) = (   0.0000000   0.0000000   1.9791325  )
         2           B   tau(   2) = (   0.5009657   0.2715580   1.9791325  )
         3           H   tau(   3) = (   0.5020846   0.5735104   2.2965180  )
         4           H   tau(   4) = (   0.5020846   0.5735104   1.6584302  )

     number of k points=    74  Gaussian smearing, width (Ry)=  0.0100
                       cart. coord. in units 2pi/alat
        k(    1) = (   0.0000000   0.0000000   0.0000000), wk =   0.0138889
        k(    2) = (   0.0003412   0.0949944   0.0000000), wk =   0.0277778
        k(    3) = (   0.0006823   0.1899889   0.0000000), wk =   0.0277778
        k(    4) = (   0.0010235   0.2849833   0.0000000), wk =   0.0277778
        k(    5) = (   0.0013646   0.3799777   0.0000000), wk =   0.0277778
        k(    6) = (   0.0017058   0.4749722   0.0000000), wk =   0.0277778
        k(    7) = (  -0.0020470  -0.5699666   0.0000000), wk =   0.0138889
        k(    8) = (   0.0831622  -0.0477984   0.0000000), wk =   0.0277778
        k(    9) = (   0.0835034   0.0471960   0.0000000), wk =   0.0277778
        k(   10) = (   0.0838445   0.1421905   0.0000000), wk =   0.0277778
        k(   11) = (   0.0841857   0.2371849   0.0000000), wk =   0.0277778
        k(   12) = (   0.0845269   0.3321793   0.0000000), wk =   0.0277778
        k(   13) = (   0.0848680   0.4271738   0.0000000), wk =   0.0277778
        k(   14) = (   0.0811152  -0.6177650   0.0000000), wk =   0.0277778
        k(   15) = (   0.0814564  -0.5227706   0.0000000), wk =   0.0277778
        k(   16) = (   0.0817976  -0.4277762   0.0000000), wk =   0.0277778
        k(   17) = (   0.0821387  -0.3327817   0.0000000), wk =   0.0277778
        k(   18) = (   0.0824799  -0.2377873   0.0000000), wk =   0.0277778
        k(   19) = (   0.0828210  -0.1427928   0.0000000), wk =   0.0277778
        k(   20) = (   0.1663244  -0.0955968   0.0000000), wk =   0.0277778
        k(   21) = (   0.1666656  -0.0006024   0.0000000), wk =   0.0277778
        k(   22) = (   0.1670067   0.0943921   0.0000000), wk =   0.0277778
        k(   23) = (   0.1673479   0.1893865   0.0000000), wk =   0.0277778
        k(   24) = (   0.1676891   0.2843809   0.0000000), wk =   0.0277778
        k(   25) = (   0.1680302   0.3793754   0.0000000), wk =   0.0277778
        k(   26) = (   0.1642774  -0.6655634   0.0000000), wk =   0.0277778
        k(   27) = (   0.1646186  -0.5705690   0.0000000), wk =   0.0277778
        k(   28) = (   0.1649598  -0.4755746   0.0000000), wk =   0.0277778
        k(   29) = (   0.1653009  -0.3805801   0.0000000), wk =   0.0277778
        k(   30) = (   0.1656421  -0.2855857   0.0000000), wk =   0.0277778
        k(   31) = (   0.1659833  -0.1905913   0.0000000), wk =   0.0277778
        k(   32) = (   0.2494866  -0.1433952   0.0000000), wk =   0.0277778
        k(   33) = (   0.2498278  -0.0484008   0.0000000), wk =   0.0277778
        k(   34) = (   0.2501689   0.0465936   0.0000000), wk =   0.0277778
        k(   35) = (   0.2505101   0.1415881   0.0000000), wk =   0.0277778
        k(   36) = (   0.2508513   0.2365825   0.0000000), wk =   0.0277778
        k(   37) = (   0.2511924   0.3315769   0.0000000), wk =   0.0277778
        k(   38) = (   0.2474397  -0.7133618   0.0000000), wk =   0.0277778
        k(   39) = (   0.2477808  -0.6183674   0.0000000), wk =   0.0277778
        k(   40) = (   0.2481220  -0.5233730   0.0000000), wk =   0.0277778
        k(   41) = (   0.2484631  -0.4283785   0.0000000), wk =   0.0277778
        k(   42) = (   0.2488043  -0.3333841   0.0000000), wk =   0.0277778
        k(   43) = (   0.2491455  -0.2383897   0.0000000), wk =   0.0277778
        k(   44) = (   0.3326488  -0.1911936   0.0000000), wk =   0.0277778
        k(   45) = (   0.3329900  -0.0961992   0.0000000), wk =   0.0277778
        k(   46) = (   0.3333312  -0.0012048   0.0000000), wk =   0.0277778
        k(   47) = (   0.3336723   0.0937897   0.0000000), wk =   0.0277778
        k(   48) = (   0.3340135   0.1887841   0.0000000), wk =   0.0277778
        k(   49) = (   0.3343546   0.2837785   0.0000000), wk =   0.0277778
        k(   50) = (   0.3306019  -0.7611603   0.0000000), wk =   0.0277778
        k(   51) = (   0.3309430  -0.6661658   0.0000000), wk =   0.0277778
        k(   52) = (   0.3312842  -0.5711714   0.0000000), wk =   0.0277778
        k(   53) = (   0.3316253  -0.4761769   0.0000000), wk =   0.0277778
        k(   54) = (   0.3319665  -0.3811825   0.0000000), wk =   0.0277778
        k(   55) = (   0.3323077  -0.2861881   0.0000000), wk =   0.0277778
        k(   56) = (   0.4158110  -0.2389921   0.0000000), wk =   0.0277778
        k(   57) = (   0.4161522  -0.1439976   0.0000000), wk =   0.0277778
        k(   58) = (   0.4164934  -0.0490032   0.0000000), wk =   0.0277778
        k(   59) = (   0.4168345   0.0459913   0.0000000), wk =   0.0277778
        k(   60) = (   0.4171757   0.1409857   0.0000000), wk =   0.0277778
        k(   61) = (   0.4175169   0.2359801   0.0000000), wk =   0.0277778
        k(   62) = (   0.4137641  -0.8089587   0.0000000), wk =   0.0277778
        k(   63) = (   0.4141052  -0.7139642   0.0000000), wk =   0.0277778
        k(   64) = (   0.4144464  -0.6189698   0.0000000), wk =   0.0277778
        k(   65) = (   0.4147876  -0.5239754   0.0000000), wk =   0.0277778
        k(   66) = (   0.4151287  -0.4289809   0.0000000), wk =   0.0277778
        k(   67) = (   0.4154699  -0.3339865   0.0000000), wk =   0.0277778
        k(   68) = (  -0.4989732   0.2867905   0.0000000), wk =   0.0138889
        k(   69) = (  -0.4986321   0.3817849   0.0000000), wk =   0.0277778
        k(   70) = (  -0.4982909   0.4767793   0.0000000), wk =   0.0277778
        k(   71) = (  -0.4979498   0.5717738   0.0000000), wk =   0.0277778
        k(   72) = (  -0.4976086   0.6667682   0.0000000), wk =   0.0277778
        k(   73) = (  -0.4972674   0.7617626   0.0000000), wk =   0.0277778
        k(   74) = (  -0.5010202  -0.2831762   0.0000000), wk =   0.0138889

     Dense  grid:   113933 G-vectors     FFT dimensions: (  40,  45, 160)

     Smooth grid:    40273 G-vectors     FFT dimensions: (  30,  30, 120)

     Estimated max dynamical RAM per process >      13.53 MB

     Estimated total dynamical RAM >     216.40 MB

     Initial potential from superposition of free atoms

     starting charge       7.9994, renormalised to       8.0000

     negative rho (up, down):  1.273E-05 0.000E+00
     Starting wfcs are   10 randomized atomic wfcs

     total cpu time spent up to now is        0.5 secs

     Self-consistent Calculation

     iteration #  1     ecut=    60.00 Ry     beta= 0.70
     Davidson diagonalization with overlap
     ethr =  1.00E-02,  avg # of iterations =  3.8

     negative rho (up, down):  1.244E-05 0.000E+00

     total cpu time spent up to now is        1.2 secs

     total energy              =     -15.01336408 Ry
     estimated scf accuracy    <       0.32468832 Ry

     iteration #  2     ecut=    60.00 Ry     beta= 0.70
     Davidson diagonalization with overlap
     ethr =  4.06E-03,  avg # of iterations =  3.6

     negative rho (up, down):  2.185E-05 0.000E+00

     total cpu time spent up to now is        1.8 secs

     total energy              =     -15.06612755 Ry
     estimated scf accuracy    <       0.01710598 Ry

     iteration #  3     ecut=    60.00 Ry     beta= 0.70
     Davidson diagonalization with overlap
     ethr =  2.14E-04,  avg # of iterations =  5.4

     negative rho (up, down):  3.172E-05 0.000E+00

     total cpu time spent up to now is        2.6 secs

     total energy              =     -15.06900717 Ry
     estimated scf accuracy    <       0.00054870 Ry

     iteration #  4     ecut=    60.00 Ry     beta= 0.70
     Davidson diagonalization with overlap
     c_bands:  1 eigenvalues not converged
     c_bands:  1 eigenvalues not converged
     ethr =  6.86E-06,  avg # of iterations =  6.2

     negative rho (up, down):  3.273E-05 0.000E+00

     total cpu time spent up to now is        3.3 secs

     total energy              =     -15.06908216 Ry
     estimated scf accuracy    <       0.00009485 Ry

     iteration #  5     ecut=    60.00 Ry     beta= 0.70
     Davidson diagonalization with overlap
     c_bands:  1 eigenvalues not converged
     ethr =  1.19E-06,  avg # of iterations =  2.6

     negative rho (up, down):  3.431E-05 0.000E+00

     total cpu time spent up to now is        3.9 secs

     total energy              =     -15.06910712 Ry
     estimated scf accuracy    <       0.00000573 Ry

     iteration #  6     ecut=    60.00 Ry     beta= 0.70
     Davidson diagonalization with overlap
     ethr =  7.16E-08,  avg # of iterations =  2.0

     negative rho (up, down):  3.467E-05 0.000E+00

     total cpu time spent up to now is        4.4 secs

     End of self-consistent calculation

          k = 0.0000 0.0000 0.0000 (  5017 PWs)   bands (ev):

   -14.4947  -8.7532  -3.0031  -0.5229   0.9835   2.3927   3.0123   5.6410

          k = 0.0003 0.0950 0.0000 (  4979 PWs)   bands (ev):

   -14.3960  -8.6353  -3.3948  -0.7754   1.1064   2.5341   3.1380   5.7667

          k = 0.0007 0.1900 0.0000 (  4988 PWs)   bands (ev):

   -14.1052  -8.2868  -4.3923  -1.3521   1.4882   2.9339   3.5234   4.0439

          k = 0.0010 0.2850 0.0000 (  5020 PWs)   bands (ev):

   -13.6404  -7.7272  -5.6670  -1.9764   1.9948   2.1288   3.7378   4.1414

          k = 0.0014 0.3800 0.0000 (  5038 PWs)   bands (ev):

   -13.0481  -7.0090  -6.9483  -2.4883   0.2596   2.9633   4.7196   4.7364

          k = 0.0017 0.4750 0.0000 (  5038 PWs)   bands (ev):

   -12.4534  -7.9970  -6.2695  -2.8155  -1.1069   3.7162   5.1417   5.9814

          k =-0.0020-0.5700 0.0000 (  5036 PWs)   bands (ev):

   -12.1648  -8.4417  -5.9022  -2.9274  -1.6863   3.9356   5.9299   6.5430

          k = 0.0832-0.0478 0.0000 (  5007 PWs)   bands (ev):

   -14.3960  -8.6525  -3.2848  -0.9157   1.1200   2.5344   3.1532   5.7076

          k = 0.0835 0.0472 0.0000 (  5007 PWs)   bands (ev):

   -14.3961  -8.6525  -3.2849  -0.9156   1.1200   2.5344   3.1532   5.7081

          k = 0.0838 0.1422 0.0000 (  5003 PWs)   bands (ev):

   -14.2016  -8.4210  -3.9824  -1.3285   1.3726   2.8089   3.4104   4.9205

          k = 0.0842 0.2372 0.0000 (  5010 PWs)   bands (ev):

   -13.8236  -7.9699  -5.0872  -1.9778   1.8899   2.8252   3.5286   3.9319

          k = 0.0845 0.3322 0.0000 (  5029 PWs)   bands (ev):

   -13.2923  -7.3321  -6.3284  -2.6061   1.1014   2.6533   4.2960   4.6600

          k = 0.0849 0.4272 0.0000 (  5030 PWs)   bands (ev):

   -12.6842  -7.4801  -6.5934  -3.0672  -0.4337   3.5630   5.2566   5.4110

          k = 0.0811-0.6178 0.0000 (  5055 PWs)   bands (ev):

   -12.2027  -8.2524  -5.9968  -3.3064  -1.4372   4.2214   5.8290   6.7330

          k = 0.0815-0.5228 0.0000 (  5055 PWs)   bands (ev):

   -12.2027  -8.2524  -5.9968  -3.3063  -1.4372   4.2213   5.8290   6.7333

          k = 0.0818-0.4278 0.0000 (  5030 PWs)   bands (ev):

   -12.6842  -7.4801  -6.5933  -3.0672  -0.4337   3.5630   5.2566   5.4111

          k = 0.0821-0.3328 0.0000 (  5029 PWs)   bands (ev):

   -13.2923  -7.3321  -6.3284  -2.6061   1.1015   2.6533   4.2961   4.6600

          k = 0.0825-0.2378 0.0000 (  5010 PWs)   bands (ev):

   -13.8236  -7.9699  -5.0871  -1.9779   1.8899   2.8253   3.5286   3.9319

          k = 0.0828-0.1428 0.0000 (  5003 PWs)   bands (ev):

   -14.2015  -8.4210  -3.9823  -1.3287   1.3726   2.8089   3.4105   4.9206

          k = 0.1663-0.0956 0.0000 (  5007 PWs)   bands (ev):

   -14.1065  -8.3605  -4.0491  -1.7925   1.5343   2.9469   3.5791   5.3837

          k = 0.1667-0.0006 0.0000 (  4991 PWs)   bands (ev):

   -14.2020  -8.4720  -3.6913  -1.6982   1.4064   2.8163   3.4491   6.0242

          k = 0.1670 0.0944 0.0000 (  5007 PWs)   bands (ev):

   -14.1065  -8.3605  -4.0494  -1.7921   1.5343   2.9468   3.5790   5.3834

          k = 0.1673 0.1894 0.0000 (  5031 PWs)   bands (ev):

   -13.8260  -8.0322  -4.8693  -2.2559   1.9225   3.1744   3.8516   3.9741

          k = 0.1677 0.2844 0.0000 (  5037 PWs)   bands (ev):

   -13.3811  -7.5108  -5.8696  -2.9942   1.8674   2.5745   4.1764   4.6388

          k = 0.1680 0.3794 0.0000 (  5046 PWs)   bands (ev):

   -12.8230  -6.9036  -6.8520  -3.6747   0.3699   3.4565   5.1136   5.5158

          k = 0.1643-0.6656 0.0000 (  5071 PWs)   bands (ev):

   -12.2786  -7.7700  -6.2103  -4.1145  -0.8006   4.4343   6.2259   6.2955

          k = 0.1646-0.5706 0.0000 (  5067 PWs)   bands (ev):

   -12.0241  -8.1404  -5.9071  -4.2633  -1.2823   4.9655   6.9330   7.0517

          k = 0.1650-0.4756 0.0000 (  5071 PWs)   bands (ev):

   -12.2786  -7.7700  -6.2103  -4.1145  -0.8005   4.4344   6.2259   6.2955

          k = 0.1653-0.3806 0.0000 (  5048 PWs)   bands (ev):

   -12.8230  -6.9036  -6.8520  -3.6748   0.3700   3.4566   5.1136   5.5158

          k = 0.1656-0.2856 0.0000 (  5037 PWs)   bands (ev):

   -13.3811  -7.5108  -5.8694  -2.9944   1.8676   2.5746   4.1764   4.6389

          k = 0.1660-0.1906 0.0000 (  5031 PWs)   bands (ev):

   -13.8260  -8.0322  -4.8690  -2.2563   1.9226   3.1745   3.8518   3.9741

          k = 0.2495-0.1434 0.0000 (  5031 PWs)   bands (ev):

   -13.6489  -7.9119  -5.1323  -2.6765   2.2265   3.3575   4.1535   4.2858

          k = 0.2498-0.0484 0.0000 (  5026 PWs)   bands (ev):

   -13.8279  -8.1141  -4.5073  -2.7075   1.9666   3.3553   4.0265   5.1903

          k = 0.2502 0.0466 0.0000 (  5026 PWs)   bands (ev):

   -13.8280  -8.1141  -4.5075  -2.7071   1.9666   3.3553   4.0265   5.1899

          k = 0.2505 0.1416 0.0000 (  5031 PWs)   bands (ev):

   -13.6489  -7.9120  -5.1327  -2.6759   2.2264   3.3573   4.1532   4.2855

          k = 0.2509 0.2366 0.0000 (  5038 PWs)   bands (ev):

   -13.3059  -7.5252  -5.9005  -3.1528   2.2900   2.7448   4.3752   4.8002

          k = 0.2512 0.3316 0.0000 (  5053 PWs)   bands (ev):

   -12.8375  -6.9987  -6.6338  -3.9907   1.0375   3.5138   5.1325   5.6097

          k = 0.2474-0.7134 0.0000 (  5056 PWs)   bands (ev):

   -12.3302  -7.2751  -6.4303  -4.7681  -0.0274   4.4696   5.9583   6.5955

          k = 0.2478-0.6184 0.0000 (  5062 PWs)   bands (ev):

   -11.9620  -7.7027  -6.0201  -5.2064  -0.6890   5.3525   6.1952   7.2941

          k = 0.2481-0.5234 0.0000 (  5062 PWs)   bands (ev):

   -11.9620  -7.7027  -6.0201  -5.2065  -0.6890   5.3526   6.1951   7.2942

          k = 0.2485-0.4284 0.0000 (  5056 PWs)   bands (ev):

   -12.3301  -7.2751  -6.4303  -4.7683  -0.0272   4.4697   5.9584   6.5956

          k = 0.2488-0.3334 0.0000 (  5053 PWs)   bands (ev):

   -12.8374  -6.9987  -6.6336  -3.9911   1.0378   3.5139   5.1326   5.6102

          k = 0.2491-0.2384 0.0000 (  5038 PWs)   bands (ev):

   -13.3058  -7.5252  -5.9001  -3.1533   2.2904   2.7449   4.3753   4.8001

          k = 0.3326-0.1912 0.0000 (  5036 PWs)   bands (ev):

   -13.0791  -7.3829  -6.3090  -3.3355   2.2945   3.1790   4.7794   4.8216

          k = 0.3330-0.0962 0.0000 (  5043 PWs)   bands (ev):

   -13.3107  -7.6279  -5.6080  -3.5156   2.7950   3.3520   4.4005   4.8804

          k = 0.3333-0.0012 0.0000 (  5043 PWs)   bands (ev):

   -13.3913  -7.7132  -5.1697  -3.8288   2.6640   4.0039   4.2306   4.7488

          k = 0.3337 0.0938 0.0000 (  5043 PWs)   bands (ev):

   -13.3108  -7.6279  -5.6085  -3.5151   2.7949   3.3516   4.4004   4.8804

          k = 0.3340 0.1888 0.0000 (  5036 PWs)   bands (ev):

   -13.0791  -7.3829  -6.3094  -3.3349   2.2940   3.1789   4.7803   4.8215

          k = 0.3344 0.2838 0.0000 (  5056 PWs)   bands (ev):

   -12.7296  -7.0153  -6.8922  -3.8004   1.3347   3.8018   5.1693   5.4804

          k = 0.3306-0.7612 0.0000 (  5051 PWs)   bands (ev):

   -12.3309  -7.2445  -6.5960  -4.7027   0.5817   4.6309   6.1002   6.3777

          k = 0.3309-0.6662 0.0000 (  5056 PWs)   bands (ev):

   -11.9981  -7.3155  -6.2450  -5.6068   0.0870   5.4730   5.7516   7.4478

          k = 0.3313-0.5712 0.0000 (  5049 PWs)   bands (ev):

   -11.8656  -7.2431  -6.1044  -6.0436  -0.0894   5.4752   5.8533   7.8513

          k = 0.3316-0.4762 0.0000 (  5056 PWs)   bands (ev):

   -11.9980  -7.3153  -6.2450  -5.6071   0.0872   5.4731   5.7514   7.4479

          k = 0.3320-0.3812 0.0000 (  5051 PWs)   bands (ev):

   -12.3308  -7.2442  -6.5960  -4.7032   0.5820   4.6310   6.1001   6.3767

          k = 0.3323-0.2862 0.0000 (  5056 PWs)   bands (ev):

   -12.7295  -7.0153  -6.8919  -3.8010   1.3351   3.8019   5.1684   5.4805

          k = 0.4158-0.2390 0.0000 (  5035 PWs)   bands (ev):

   -12.5320  -7.2826  -6.9173  -3.7291   1.2974   4.3104   4.6017   6.0661

          k = 0.4162-0.1440 0.0000 (  5059 PWs)   bands (ev):

   -12.7372  -7.1115  -6.7225  -4.0103   2.0205   3.8594   5.2105   5.3945

          k = 0.4165-0.0490 0.0000 (  5060 PWs)   bands (ev):

   -12.8551  -7.2220  -6.0350  -4.6756   2.8138   3.6082   4.8044   5.7349

          k = 0.4168 0.0460 0.0000 (  5060 PWs)   bands (ev):

   -12.8551  -7.2220  -6.0353  -4.6752   2.8135   3.6082   4.8045   5.7349

          k = 0.4172 0.1410 0.0000 (  5059 PWs)   bands (ev):

   -12.7373  -7.1115  -6.7230  -4.0096   2.0200   3.8593   5.2113   5.3944

          k = 0.4175 0.2360 0.0000 (  5035 PWs)   bands (ev):

   -12.5321  -7.2830  -6.9174  -3.7284   1.2969   4.3103   4.6025   6.0660

          k = 0.4138-0.8090 0.0000 (  5051 PWs)   bands (ev):

   -12.3000  -7.5398  -6.6922  -4.1523   0.8583   4.8743   5.1296   6.7382

          k = 0.4141-0.7140 0.0000 (  5056 PWs)   bands (ev):

   -12.1146  -7.4115  -6.4990  -5.0520   0.7240   5.4415   6.0075   6.3320

          k = 0.4144-0.6190 0.0000 (  5053 PWs)   bands (ev):

   -12.0198  -6.8932  -6.3900  -6.0414   0.7683   5.1870   5.5536   7.6146

          k = 0.4148-0.5240 0.0000 (  5053 PWs)   bands (ev):

   -12.0197  -6.8928  -6.3900  -6.0418   0.7684   5.1869   5.5536   7.6149

          k = 0.4151-0.4290 0.0000 (  5056 PWs)   bands (ev):

   -12.1145  -7.4112  -6.4990  -5.0525   0.7243   5.4416   6.0072   6.3311

          k = 0.4155-0.3340 0.0000 (  5051 PWs)   bands (ev):

   -12.2999  -7.5394  -6.6922  -4.1529   0.8588   4.8741   5.1292   6.7382

          k =-0.4990 0.2868 0.0000 (  5038 PWs)   bands (ev):

   -12.2815  -7.6845  -6.7230  -3.8596   0.9160   4.4922   5.1949   6.6963

          k =-0.4986 0.3818 0.0000 (  5049 PWs)   bands (ev):

   -12.3047  -7.4841  -6.7346  -4.2195   1.0935   4.9925   5.0473   6.5706

          k =-0.4983 0.4768 0.0000 (  5054 PWs)   bands (ev):

   -12.3493  -6.9314  -6.7573  -5.0505   1.5286   4.7183   5.4915   6.4103

          k =-0.4979 0.5718 0.0000 (  5075 PWs)   bands (ev):

   -12.3708  -6.7691  -6.3269  -5.7776   1.8176   4.6115   4.9428   6.7998

          k =-0.4976 0.6668 0.0000 (  5054 PWs)   bands (ev):

   -12.3493  -6.9318  -6.7573  -5.0499   1.5282   4.7182   5.4918   6.4112

          k =-0.4973 0.7618 0.0000 (  5049 PWs)   bands (ev):

   -12.3048  -7.4844  -6.7346  -4.2188   1.0930   4.9924   5.0481   6.5707

          k =-0.5010-0.2832 0.0000 (  5038 PWs)   bands (ev):

   -12.2816  -7.6848  -6.7230  -3.8589   0.9155   4.4931   5.1947   6.6960

     the Fermi energy is    -1.1710 ev

!    total energy              =     -15.06910840 Ry
     estimated scf accuracy    <       0.00000013 Ry
     smearing contrib. (-TS)   =      -0.00016530 Ry
     internal energy E=F+TS    =     -15.06894309 Ry

     The total energy is F=E-TS. E is the sum of the following terms:
     one-electron contribution =     -65.75306639 Ry
     hartree contribution      =      34.45472234 Ry
     xc contribution           =      -7.30463707 Ry
     ewald contribution        =      23.53403803 Ry

     convergence has been achieved in   6 iterations

     negative rho (up, down):  3.467E-05 0.000E+00

     Forces acting on atoms (cartesian axes, Ry/au):

     atom    1 type  1   force =    -0.00003237    0.00070078   -0.00228101
     atom    2 type  1   force =     0.00003653   -0.00067645   -0.00227927
     atom    3 type  2   force =    -0.00000187   -0.00001246    0.00542481
     atom    4 type  2   force =    -0.00000229   -0.00001187   -0.00086453
     The non-local contrib.  to forces
     atom    1 type  1   force =    -0.00127351   -0.34357580   -0.00248319
     atom    2 type  1   force =     0.00129457    0.34361679   -0.00248046
     atom    3 type  2   force =    -0.00000748    0.00000436   -0.11226613
     atom    4 type  2   force =    -0.00000730    0.00000412    0.11077763
     The ionic contribution  to forces
     atom    1 type  1   force =     0.00246890    0.70483078   -0.00119426
     atom    2 type  1   force =    -0.00256546   -0.70474582   -0.00119282
     atom    3 type  2   force =     0.00004882   -0.00004318    2.58038563
     atom    4 type  2   force =     0.00004773   -0.00004178   -2.57799856
     The local contribution  to forces
     atom    1 type  1   force =    -0.00125541   -0.36772890    0.00139960
     atom    2 type  1   force =     0.00133525    0.36762888    0.00139713
     atom    3 type  2   force =    -0.00004334    0.00002566   -2.46265633
     atom    4 type  2   force =    -0.00004265    0.00002471    2.46639165
     The core correction contribution to forces
     atom    1 type  1   force =     0.00002663    0.00704185    0.00011622
     atom    2 type  1   force =    -0.00002701   -0.00704335    0.00011601
     atom    3 type  2   force =     0.00000000    0.00000000    0.00000000
     atom    4 type  2   force =     0.00000000    0.00000000    0.00000000
     The Hubbard contrib.    to forces
     atom    1 type  1   force =     0.00000000    0.00000000    0.00000000
     atom    2 type  1   force =     0.00000000    0.00000000    0.00000000
     atom    3 type  2   force =     0.00000000    0.00000000    0.00000000
     atom    4 type  2   force =     0.00000000    0.00000000    0.00000000
     The SCF correction term to forces
     atom    1 type  1   force =     0.00000114    0.00013276   -0.00009732
     atom    2 type  1   force =    -0.00000069   -0.00013304   -0.00009709
     atom    3 type  2   force =     0.00000025    0.00000061   -0.00001631
     atom    4 type  2   force =     0.00000005    0.00000099   -0.00001320

     Total force =     0.006444     Total SCF correction =     0.000234

     Writing all to output data dir ./TMPDIR/pwscf.save/
 
     init_run     :      0.42s CPU      0.44s WALL (       1 calls)
     electrons    :      3.75s CPU      3.92s WALL (       1 calls)
     forces       :      0.15s CPU      0.15s WALL (       1 calls)

     Called by init_run:
     wfcinit      :      0.20s CPU      0.21s WALL (       1 calls)
     potinit      :      0.06s CPU      0.06s WALL (       1 calls)
     hinit0       :      0.13s CPU      0.14s WALL (       1 calls)

     Called by electrons:
     c_bands      :      3.13s CPU      3.24s WALL (       6 calls)
     sum_band     :      0.51s CPU      0.53s WALL (       6 calls)
     v_of_rho     :      0.07s CPU      0.07s WALL (       7 calls)
     newd         :      0.04s CPU      0.04s WALL (       7 calls)
     mix_rho      :      0.01s CPU      0.01s WALL (       6 calls)

     Called by c_bands:
     init_us_2    :      0.08s CPU      0.08s WALL (    1036 calls)
     init_us_2:cp :      0.08s CPU      0.08s WALL (    1036 calls)
     cegterg      :      2.99s CPU      3.09s WALL (     444 calls)

     Called by *egterg:
     cdiaghg      :      0.22s CPU      0.22s WALL (    2190 calls)
     h_psi        :      2.54s CPU      2.62s WALL (    2264 calls)
     s_psi        :      0.06s CPU      0.06s WALL (    2264 calls)
     g_psi        :      0.03s CPU      0.03s WALL (    1746 calls)

     Called by h_psi:
     h_psi:calbec :      0.11s CPU      0.11s WALL (    2264 calls)
     vloc_psi     :      2.35s CPU      2.43s WALL (    2264 calls)
     add_vuspsi   :      0.06s CPU      0.06s WALL (    2264 calls)

     General routines
     calbec       :      0.14s CPU      0.15s WALL (    3004 calls)
     fft          :      0.08s CPU      0.09s WALL (     100 calls)
     ffts         :      0.00s CPU      0.00s WALL (      13 calls)
     fftw         :      2.38s CPU      2.46s WALL (   26208 calls)
     interpolate  :      0.00s CPU      0.00s WALL (       7 calls)
 
     Parallel routines
 
     PWSCF        :      4.47s CPU      5.31s WALL

 
   This run was terminated on:  17:34:44  12Mar2024            

=------------------------------------------------------------------------------=
   JOB DONE.
=------------------------------------------------------------------------------=
