[0] MPI startup(): I_MPI_TCP_NETMASK variable has been removed from the product, its value is ignored


     Program PWSCF v.7.2 starts on 12Mar2024 at 18:25: 3 

     This program is part of the open-source Quantum ESPRESSO suite
     for quantum simulation of materials; please cite
         "P. Giannozzi et al., J. Phys.:Condens. Matter 21 395502 (2009);
         "P. Giannozzi et al., J. Phys.:Condens. Matter 29 465901 (2017);
         "P. Giannozzi et al., J. Chem. Phys. 152 154105 (2020);
          URL http://www.quantum-espresso.org", 
     in publications or presentations arising from this work. More details at
     http://www.quantum-espresso.org/quote

     Parallel version (MPI), running on    16 processors

     MPI processes distributed on     1 nodes
     37741 MiB available memory on the printing compute node when the environment starts
 
     Reading input from espresso.pwi
Warning: card &CELL ignored
Warning: card / ignored

     Current dimensions of program PWSCF are:
     Max number of different atomic species (ntypx) = 10
     Max number of k-points (npk) =  40000
     Max angular momentum in pseudopotentials (lmaxx) =  4
     Presently no symmetry can be used with electric field


     IMPORTANT: XC functional enforced from input :
     Exchange-correlation= VDW-DF2-B86R
                           (   1   4  26   0   2   0   0)
     Any further DFT definition will be discarded
     Please, verify this is what you really want

 
     R & G space division:  proc/nbgrp/npool/nimage =      16
     Subspace diagonalization in iterative solution of the eigenvalue problem:
     a serial algorithm will be used

 
     Parallelization info
     --------------------
     sticks:   dense  smooth     PW     G-vecs:    dense   smooth      PW
     Min          67      34     10                 7115     2515     444
     Max          68      36     11                 7126     2519     463
     Sum        1085     551    167               113933    40273    7201
 
     Using Slab Decomposition
 


     bravais-lattice index     =            0
     lattice parameter (alat)  =       5.6973  a.u.
     unit-cell volume          =     642.1518 (a.u.)^3
     number of atoms/cell      =            4
     number of atomic types    =            2
     number of electrons       =         8.00
     number of Kohn-Sham states=            8
     kinetic-energy cutoff     =      60.0000  Ry
     charge density cutoff     =     480.0000  Ry
     scf convergence threshold =      1.0E-06
     mixing beta               =       0.7000
     number of iterations used =            8  plain     mixing
     Exchange-correlation= VDW-DF2-B86R
                           (   1   4  26   0   2   0   0)

     celldm(1)=   5.697334  celldm(2)=   0.000000  celldm(3)=   0.000000
     celldm(4)=   0.000000  celldm(5)=   0.000000  celldm(6)=   0.000000

     crystal axes: (cart. coord. in units of alat)
               a(1) = (   0.999994  -0.003591   0.000000 )  
               a(2) = (   0.503167   0.875437   0.000000 )  
               a(3) = (   0.000000   0.000000   3.958265 )  

     reciprocal axes: (cart. coord. in units 2 pi/alat)
               b(1) = (  0.997946 -0.573581  0.000000 )  
               b(2) = (  0.004094  1.139933  0.000000 )  
               b(3) = (  0.000000  0.000000  0.252636 )  


     PseudoPot. # 1 for B  read from file:
     /home/krojas/QE/pseudo/b_pbe_v1.4.uspp.F.UPF
     MD5 check sum: cc6de2960df11db49a60e589f9ebb39b
     Pseudo is Ultrasoft + core correction, Zval =  3.0
     Generated by new atomic code, or converted to UPF format
     Using radial grid of  781 points,  4 beta functions with: 
                l(1) =   0
                l(2) =   0
                l(3) =   1
                l(4) =   1
     Q(r) pseudized with  8 coefficients,  rinner =    1.100   1.100   1.100


     PseudoPot. # 2 for H  read from file:
     /home/krojas/QE/pseudo/h_pbe_v1.4.uspp.F.UPF
     MD5 check sum: 761ae9a214b05c3daf00ab9f6b793d6f
     Pseudo is Ultrasoft, Zval =  1.0
     Generated by new atomic code, or converted to UPF format
     Using radial grid of  615 points,  2 beta functions with: 
                l(1) =   0
                l(2) =   0
     Q(r) pseudized with  8 coefficients,  rinner =    0.700

     atomic species   valence    mass     pseudopotential
        B              3.00    10.81000     B ( 1.00)
        H              1.00     1.00800     H ( 1.00)

     No symmetry found



   Cartesian axes

     site n.     atom                  positions (alat units)
         1           B   tau(   1) = (   0.0000000   0.0000000   1.9791325  )
         2           B   tau(   2) = (   0.5009657   0.2682411   1.9791325  )
         3           H   tau(   3) = (   0.5020846   0.5735104   2.2998349  )
         4           H   tau(   4) = (   0.5020846   0.5735104   1.6584302  )

     number of k points=    74  Gaussian smearing, width (Ry)=  0.0100
                       cart. coord. in units 2pi/alat
        k(    1) = (   0.0000000   0.0000000   0.0000000), wk =   0.0138889
        k(    2) = (   0.0003412   0.0949944   0.0000000), wk =   0.0277778
        k(    3) = (   0.0006823   0.1899889   0.0000000), wk =   0.0277778
        k(    4) = (   0.0010235   0.2849833   0.0000000), wk =   0.0277778
        k(    5) = (   0.0013646   0.3799777   0.0000000), wk =   0.0277778
        k(    6) = (   0.0017058   0.4749722   0.0000000), wk =   0.0277778
        k(    7) = (  -0.0020470  -0.5699666   0.0000000), wk =   0.0138889
        k(    8) = (   0.0831622  -0.0477984   0.0000000), wk =   0.0277778
        k(    9) = (   0.0835034   0.0471960   0.0000000), wk =   0.0277778
        k(   10) = (   0.0838445   0.1421905   0.0000000), wk =   0.0277778
        k(   11) = (   0.0841857   0.2371849   0.0000000), wk =   0.0277778
        k(   12) = (   0.0845269   0.3321793   0.0000000), wk =   0.0277778
        k(   13) = (   0.0848680   0.4271738   0.0000000), wk =   0.0277778
        k(   14) = (   0.0811152  -0.6177650   0.0000000), wk =   0.0277778
        k(   15) = (   0.0814564  -0.5227706   0.0000000), wk =   0.0277778
        k(   16) = (   0.0817976  -0.4277762   0.0000000), wk =   0.0277778
        k(   17) = (   0.0821387  -0.3327817   0.0000000), wk =   0.0277778
        k(   18) = (   0.0824799  -0.2377873   0.0000000), wk =   0.0277778
        k(   19) = (   0.0828210  -0.1427928   0.0000000), wk =   0.0277778
        k(   20) = (   0.1663244  -0.0955968   0.0000000), wk =   0.0277778
        k(   21) = (   0.1666656  -0.0006024   0.0000000), wk =   0.0277778
        k(   22) = (   0.1670067   0.0943921   0.0000000), wk =   0.0277778
        k(   23) = (   0.1673479   0.1893865   0.0000000), wk =   0.0277778
        k(   24) = (   0.1676891   0.2843809   0.0000000), wk =   0.0277778
        k(   25) = (   0.1680302   0.3793754   0.0000000), wk =   0.0277778
        k(   26) = (   0.1642774  -0.6655634   0.0000000), wk =   0.0277778
        k(   27) = (   0.1646186  -0.5705690   0.0000000), wk =   0.0277778
        k(   28) = (   0.1649598  -0.4755746   0.0000000), wk =   0.0277778
        k(   29) = (   0.1653009  -0.3805801   0.0000000), wk =   0.0277778
        k(   30) = (   0.1656421  -0.2855857   0.0000000), wk =   0.0277778
        k(   31) = (   0.1659833  -0.1905913   0.0000000), wk =   0.0277778
        k(   32) = (   0.2494866  -0.1433952   0.0000000), wk =   0.0277778
        k(   33) = (   0.2498278  -0.0484008   0.0000000), wk =   0.0277778
        k(   34) = (   0.2501689   0.0465936   0.0000000), wk =   0.0277778
        k(   35) = (   0.2505101   0.1415881   0.0000000), wk =   0.0277778
        k(   36) = (   0.2508513   0.2365825   0.0000000), wk =   0.0277778
        k(   37) = (   0.2511924   0.3315769   0.0000000), wk =   0.0277778
        k(   38) = (   0.2474397  -0.7133618   0.0000000), wk =   0.0277778
        k(   39) = (   0.2477808  -0.6183674   0.0000000), wk =   0.0277778
        k(   40) = (   0.2481220  -0.5233730   0.0000000), wk =   0.0277778
        k(   41) = (   0.2484631  -0.4283785   0.0000000), wk =   0.0277778
        k(   42) = (   0.2488043  -0.3333841   0.0000000), wk =   0.0277778
        k(   43) = (   0.2491455  -0.2383897   0.0000000), wk =   0.0277778
        k(   44) = (   0.3326488  -0.1911936   0.0000000), wk =   0.0277778
        k(   45) = (   0.3329900  -0.0961992   0.0000000), wk =   0.0277778
        k(   46) = (   0.3333312  -0.0012048   0.0000000), wk =   0.0277778
        k(   47) = (   0.3336723   0.0937897   0.0000000), wk =   0.0277778
        k(   48) = (   0.3340135   0.1887841   0.0000000), wk =   0.0277778
        k(   49) = (   0.3343546   0.2837785   0.0000000), wk =   0.0277778
        k(   50) = (   0.3306019  -0.7611603   0.0000000), wk =   0.0277778
        k(   51) = (   0.3309430  -0.6661658   0.0000000), wk =   0.0277778
        k(   52) = (   0.3312842  -0.5711714   0.0000000), wk =   0.0277778
        k(   53) = (   0.3316253  -0.4761769   0.0000000), wk =   0.0277778
        k(   54) = (   0.3319665  -0.3811825   0.0000000), wk =   0.0277778
        k(   55) = (   0.3323077  -0.2861881   0.0000000), wk =   0.0277778
        k(   56) = (   0.4158110  -0.2389921   0.0000000), wk =   0.0277778
        k(   57) = (   0.4161522  -0.1439976   0.0000000), wk =   0.0277778
        k(   58) = (   0.4164934  -0.0490032   0.0000000), wk =   0.0277778
        k(   59) = (   0.4168345   0.0459913   0.0000000), wk =   0.0277778
        k(   60) = (   0.4171757   0.1409857   0.0000000), wk =   0.0277778
        k(   61) = (   0.4175169   0.2359801   0.0000000), wk =   0.0277778
        k(   62) = (   0.4137641  -0.8089587   0.0000000), wk =   0.0277778
        k(   63) = (   0.4141052  -0.7139642   0.0000000), wk =   0.0277778
        k(   64) = (   0.4144464  -0.6189698   0.0000000), wk =   0.0277778
        k(   65) = (   0.4147876  -0.5239754   0.0000000), wk =   0.0277778
        k(   66) = (   0.4151287  -0.4289809   0.0000000), wk =   0.0277778
        k(   67) = (   0.4154699  -0.3339865   0.0000000), wk =   0.0277778
        k(   68) = (  -0.4989732   0.2867905   0.0000000), wk =   0.0138889
        k(   69) = (  -0.4986321   0.3817849   0.0000000), wk =   0.0277778
        k(   70) = (  -0.4982909   0.4767793   0.0000000), wk =   0.0277778
        k(   71) = (  -0.4979498   0.5717738   0.0000000), wk =   0.0277778
        k(   72) = (  -0.4976086   0.6667682   0.0000000), wk =   0.0277778
        k(   73) = (  -0.4972674   0.7617626   0.0000000), wk =   0.0277778
        k(   74) = (  -0.5010202  -0.2831762   0.0000000), wk =   0.0138889

     Dense  grid:   113933 G-vectors     FFT dimensions: (  40,  45, 160)

     Smooth grid:    40273 G-vectors     FFT dimensions: (  30,  30, 120)

     Estimated max dynamical RAM per process >      13.53 MB

     Estimated total dynamical RAM >     216.40 MB

     Initial potential from superposition of free atoms

     starting charge       7.9994, renormalised to       8.0000

     negative rho (up, down):  1.271E-05 0.000E+00


     %%%%%%%%%%%%%%%%%%%%%%%%%%%%%%%%%%%%%%%%%%%%%%%%%%%%%%%%%%%%%%%%%%%%%%%%
     %                                                                      %
     % You are using vdW-DF, which was implemented by the Thonhauser group. %
     % Please cite the following two papers that made this development      %
     % possible and the two reviews that describe the various versions:     %
     %                                                                      %
     %   T. Thonhauser et al., PRL 115, 136402 (2015).                      %
     %   T. Thonhauser et al., PRB 76, 125112 (2007).                       %
     %   K. Berland et al., Rep. Prog. Phys. 78, 066501 (2015).             %
     %   D.C. Langreth et al., J. Phys.: Condens. Matter 21, 084203 (2009). %
     %                                                                      %
     % If you are calculating stress with vdW-DF, please also cite:         %
     %                                                                      %
     %   R. Sabatini et al., J. Phys.: Condens. Matter 24, 424209 (2012).   %
     %                                                                      %
     %%%%%%%%%%%%%%%%%%%%%%%%%%%%%%%%%%%%%%%%%%%%%%%%%%%%%%%%%%%%%%%%%%%%%%%%

     %%%%%%%%%%%%%%%%%%%%%%%%%%%%%%%%%%%%%%%%%%%%%%%%%%%%%%%%%%%%%%%%%%%%%%%%
     %                                                                      %
     %  vdW-DF NEWS:                                                        %
     %                                                                      %
     %  * vdW-DF3 is now available. DOI: 10.1021/acs.jctc.0c00471           %
     %    use with input_dft = 'vdW-DF3-opt1' or 'vdW-DF3-opt2'             %
     %                                                                      %
     %  * Unscreened and range-separated hybrid vdW-DF-cx functionals       %
     %    DOI: 10.1063/1.4986522 and 10.1088/1361-648X/ac2ad2               %
     %    use with input_dft = 'vdW-DF-cx0'    and 'vdW-DF-ahcx'            %
     %  * Unscreened and range-separated hybrid vdW-DF2-b86r functionals    %
     %    DOI: 10.1063/1.4986522 and DOI: 10.1103/PhysRevX.12.041003        %
     %    use with input_dft = 'vdW-DF2-br0' and 'vdW-DF2-ahbr'             %
     %                                                                      %
     %%%%%%%%%%%%%%%%%%%%%%%%%%%%%%%%%%%%%%%%%%%%%%%%%%%%%%%%%%%%%%%%%%%%%%%%


 
     Adding external electric field

     Computed dipole along edir(3) : 
        Dipole               -0.0000 Ry au,         -0.0000 Debye
        Dipole field         -0.0000 Ry au, 
 
        Potential amp.        0.0000 Ry
        Total length         22.5493 bohr
 
     Starting wfcs are   10 randomized atomic wfcs

     total cpu time spent up to now is       14.3 secs

     Self-consistent Calculation

     iteration #  1     ecut=    60.00 Ry     beta= 0.70
     Davidson diagonalization with overlap
     ethr =  1.00E-02,  avg # of iterations =  3.8

     negative rho (up, down):  1.265E-05 0.000E+00
 
     Adding external electric field

     Computed dipole along edir(3) : 
        Dipole               -0.0001 Ry au,         -0.0003 Debye
        Dipole field         -0.0000 Ry au, 
 
        Potential amp.        0.0001 Ry
        Total length         22.5493 bohr
 

     total cpu time spent up to now is       15.0 secs

     total energy              =     -15.04600433 Ry
     estimated scf accuracy    <       0.32813196 Ry

     iteration #  2     ecut=    60.00 Ry     beta= 0.70
     Davidson diagonalization with overlap
     ethr =  4.10E-03,  avg # of iterations =  3.9

     negative rho (up, down):  2.172E-05 0.000E+00
 
     Adding external electric field

     Computed dipole along edir(3) : 
        Dipole                0.0001 Ry au,          0.0004 Debye
        Dipole field          0.0000 Ry au, 
 
        Potential amp.       -0.0001 Ry
        Total length         22.5493 bohr
 

     total cpu time spent up to now is       15.7 secs

     total energy              =     -15.10083077 Ry
     estimated scf accuracy    <       0.01898292 Ry

     iteration #  3     ecut=    60.00 Ry     beta= 0.70
     Davidson diagonalization with overlap
     ethr =  2.37E-04,  avg # of iterations =  5.1

     negative rho (up, down):  3.082E-05 0.000E+00
 
     Adding external electric field

     Computed dipole along edir(3) : 
        Dipole               -0.0004 Ry au,         -0.0010 Debye
        Dipole field         -0.0000 Ry au, 
 
        Potential amp.        0.0004 Ry
        Total length         22.5493 bohr
 

     total cpu time spent up to now is       16.5 secs

     total energy              =     -15.10418710 Ry
     estimated scf accuracy    <       0.00059497 Ry

     iteration #  4     ecut=    60.00 Ry     beta= 0.70
     Davidson diagonalization with overlap
     ethr =  7.44E-06,  avg # of iterations =  5.3

     negative rho (up, down):  3.265E-05 0.000E+00
 
     Adding external electric field

     Computed dipole along edir(3) : 
        Dipole                0.0010 Ry au,          0.0026 Debye
        Dipole field          0.0000 Ry au, 
 
        Potential amp.       -0.0009 Ry
        Total length         22.5493 bohr
 

     total cpu time spent up to now is       17.2 secs

     total energy              =     -15.10428124 Ry
     estimated scf accuracy    <       0.00000729 Ry

     iteration #  5     ecut=    60.00 Ry     beta= 0.70
     Davidson diagonalization with overlap
     ethr =  9.12E-08,  avg # of iterations =  3.0

     negative rho (up, down):  3.303E-05 0.000E+00
 
     Adding external electric field

     Computed dipole along edir(3) : 
        Dipole               -0.0009 Ry au,         -0.0022 Debye
        Dipole field         -0.0000 Ry au, 
 
        Potential amp.        0.0008 Ry
        Total length         22.5493 bohr
 

     total cpu time spent up to now is       17.9 secs

     total energy              =     -15.10428358 Ry
     estimated scf accuracy    <       0.00000201 Ry

     iteration #  6     ecut=    60.00 Ry     beta= 0.70
     Davidson diagonalization with overlap
     ethr =  2.51E-08,  avg # of iterations =  2.0

     negative rho (up, down):  3.320E-05 0.000E+00
 
     Adding external electric field

     Computed dipole along edir(3) : 
        Dipole                0.0001 Ry au,          0.0001 Debye
        Dipole field          0.0000 Ry au, 
 
        Potential amp.       -0.0000 Ry
        Total length         22.5493 bohr
 

     total cpu time spent up to now is       18.4 secs

     total energy              =     -15.10428405 Ry
     estimated scf accuracy    <       0.00000128 Ry

     iteration #  7     ecut=    60.00 Ry     beta= 0.70
     Davidson diagonalization with overlap
     ethr =  1.60E-08,  avg # of iterations =  1.7

     negative rho (up, down):  3.328E-05 0.000E+00
 
     Adding external electric field

     Computed dipole along edir(3) : 
        Dipole               -0.0001 Ry au,         -0.0003 Debye
        Dipole field         -0.0000 Ry au, 
 
        Potential amp.        0.0001 Ry
        Total length         22.5493 bohr
 

     total cpu time spent up to now is       19.0 secs

     End of self-consistent calculation

          k = 0.0000 0.0000 0.0000 (  5017 PWs)   bands (ev):

   -14.5202  -8.8347  -3.0627  -0.7343   0.5678   1.9390   2.9102   5.4794

          k = 0.0003 0.0950 0.0000 (  4979 PWs)   bands (ev):

   -14.4209  -8.7165  -3.4548  -0.9735   0.6893   2.0804   3.0369   5.6015

          k = 0.0007 0.1900 0.0000 (  4988 PWs)   bands (ev):

   -14.1280  -8.3671  -4.4549  -1.5259   1.0712   2.4876   3.4254   3.9554

          k = 0.0010 0.2850 0.0000 (  5020 PWs)   bands (ev):

   -13.6592  -7.8056  -5.7349  -2.1307   1.7175   1.8982   3.2973   4.0473

          k = 0.0014 0.3800 0.0000 (  5038 PWs)   bands (ev):

   -13.0596  -7.0825  -7.0263  -2.6302   0.1696   2.5827   4.2676   4.6191

          k = 0.0017 0.4750 0.0000 (  5038 PWs)   bands (ev):

   -12.4530  -8.0853  -6.3407  -2.9506  -1.2003   3.4527   4.9012   5.5270

          k =-0.0020-0.5700 0.0000 (  5036 PWs)   bands (ev):

   -12.1556  -8.5391  -5.9701  -3.0604  -1.7828   3.7743   5.6195   6.1129

          k = 0.0832-0.0478 0.0000 (  5007 PWs)   bands (ev):

   -14.4213  -8.7334  -3.3432  -1.1147   0.7030   2.0803   3.0516   5.5682

          k = 0.0835 0.0472 0.0000 (  5007 PWs)   bands (ev):

   -14.4213  -8.7334  -3.3433  -1.1147   0.7030   2.0803   3.0516   5.5684

          k = 0.0838 0.1422 0.0000 (  5003 PWs)   bands (ev):

   -14.2254  -8.5013  -4.0434  -1.5073   0.9546   2.3561   3.3107   4.8410

          k = 0.0842 0.2372 0.0000 (  5010 PWs)   bands (ev):

   -13.8445  -8.0488  -5.1526  -2.1340   1.4742   2.6288   3.1885   3.8348

          k = 0.0845 0.3322 0.0000 (  5029 PWs)   bands (ev):

   -13.3077  -7.4085  -6.4007  -2.7461   1.0107   2.2485   3.8465   4.5632

          k = 0.0849 0.4272 0.0000 (  5030 PWs)   bands (ev):

   -12.6900  -7.5625  -6.6662  -3.1976  -0.5250   3.2017   4.9575   5.1086

          k = 0.0811-0.6178 0.0000 (  5055 PWs)   bands (ev):

   -12.1961  -8.3478  -6.0649  -3.4323  -1.5325   3.9891   5.5436   6.2863

          k = 0.0815-0.5228 0.0000 (  5055 PWs)   bands (ev):

   -12.1961  -8.3478  -6.0649  -3.4323  -1.5325   3.9891   5.5436   6.2864

          k = 0.0818-0.4278 0.0000 (  5030 PWs)   bands (ev):

   -12.6900  -7.5626  -6.6662  -3.1976  -0.5250   3.2018   4.9576   5.1085

          k = 0.0821-0.3328 0.0000 (  5029 PWs)   bands (ev):

   -13.3076  -7.4085  -6.4007  -2.7461   1.0107   2.2485   3.8465   4.5633

          k = 0.0825-0.2378 0.0000 (  5010 PWs)   bands (ev):

   -13.8445  -8.0488  -5.1526  -2.1340   1.4742   2.6288   3.1886   3.8349

          k = 0.0828-0.1428 0.0000 (  5003 PWs)   bands (ev):

   -14.2254  -8.5013  -4.0434  -1.5073   0.9546   2.3561   3.3107   4.8411

          k = 0.1663-0.0956 0.0000 (  5007 PWs)   bands (ev):

   -14.1307  -8.4395  -4.1088  -1.9656   1.1156   2.4928   3.4792   5.3077

          k = 0.1667-0.0006 0.0000 (  4991 PWs)   bands (ev):

   -14.2268  -8.5515  -3.7459  -1.8817   0.9876   2.3609   3.3481   5.8728

          k = 0.1670 0.0944 0.0000 (  5007 PWs)   bands (ev):

   -14.1307  -8.4395  -4.1089  -1.9654   1.1155   2.4928   3.4792   5.3076

          k = 0.1673 0.1894 0.0000 (  5031 PWs)   bands (ev):

   -13.8480  -8.1101  -4.9346  -2.4089   1.5046   2.7986   3.6920   3.8757

          k = 0.1677 0.2844 0.0000 (  5037 PWs)   bands (ev):

   -13.3989  -7.5866  -5.9404  -3.1285   1.7681   2.1604   3.7373   4.5423

          k = 0.1680 0.3794 0.0000 (  5046 PWs)   bands (ev):

   -12.8333  -6.9807  -6.9270  -3.7961   0.2791   3.0564   4.6637   5.4121

          k = 0.1643-0.6656 0.0000 (  5071 PWs)   bands (ev):

   -12.2774  -7.8619  -6.2785  -4.2284  -0.8935   4.0818   5.7906   6.1078

          k = 0.1646-0.5706 0.0000 (  5067 PWs)   bands (ev):

   -12.0150  -8.2405  -5.9724  -4.3749  -1.3776   4.6944   6.5060   6.8053

          k = 0.1650-0.4756 0.0000 (  5071 PWs)   bands (ev):

   -12.2774  -7.8619  -6.2784  -4.2284  -0.8935   4.0819   5.7907   6.1078

          k = 0.1653-0.3806 0.0000 (  5048 PWs)   bands (ev):

   -12.8332  -6.9808  -6.9269  -3.7960   0.2791   3.0565   4.6638   5.4123

          k = 0.1656-0.2856 0.0000 (  5037 PWs)   bands (ev):

   -13.3988  -7.5865  -5.9404  -3.1285   1.7681   2.1605   3.7373   4.5423

          k = 0.1660-0.1906 0.0000 (  5031 PWs)   bands (ev):

   -13.8480  -8.1101  -4.9345  -2.4090   1.5047   2.7987   3.6921   3.8758

          k = 0.2495-0.1434 0.0000 (  5031 PWs)   bands (ev):

   -13.6709  -7.9877  -5.1994  -2.8227   1.8083   3.0036   3.9683   4.1895

          k = 0.2498-0.0484 0.0000 (  5026 PWs)   bands (ev):

   -13.8515  -8.1908  -4.5629  -2.8681   1.5466   2.9003   3.9274   5.1208

          k = 0.2502 0.0466 0.0000 (  5026 PWs)   bands (ev):

   -13.8515  -8.1908  -4.5631  -2.8680   1.5466   2.9003   3.9274   5.1206

          k = 0.2505 0.1416 0.0000 (  5031 PWs)   bands (ev):

   -13.6710  -7.9877  -5.1996  -2.8225   1.8082   3.0035   3.9682   4.1894

          k = 0.2509 0.2366 0.0000 (  5038 PWs)   bands (ev):

   -13.3246  -7.5991  -5.9736  -3.2834   2.1708   2.3298   3.9532   4.7065

          k = 0.2512 0.3316 0.0000 (  5053 PWs)   bands (ev):

   -12.8502  -7.0696  -6.7137  -4.1068   0.9409   3.1062   4.6899   5.5102

          k = 0.2474-0.7134 0.0000 (  5056 PWs)   bands (ev):

   -12.3337  -7.3653  -6.4976  -4.8738  -0.1201   4.0840   5.5482   6.4648

          k = 0.2478-0.6184 0.0000 (  5062 PWs)   bands (ev):

   -11.9559  -7.8044  -6.0838  -5.3062  -0.7824   5.0287   5.8964   6.9615

          k = 0.2481-0.5234 0.0000 (  5062 PWs)   bands (ev):

   -11.9558  -7.8044  -6.0837  -5.3062  -0.7825   5.0288   5.8964   6.9616

          k = 0.2485-0.4284 0.0000 (  5056 PWs)   bands (ev):

   -12.3336  -7.3654  -6.4975  -4.8738  -0.1201   4.0841   5.5482   6.4648

          k = 0.2488-0.3334 0.0000 (  5053 PWs)   bands (ev):

   -12.8501  -7.0695  -6.7137  -4.1069   0.9409   3.1064   4.6900   5.5103

          k = 0.2491-0.2384 0.0000 (  5038 PWs)   bands (ev):

   -13.3245  -7.5991  -5.9735  -3.2836   2.1709   2.3299   3.9532   4.7066

          k = 0.3326-0.1912 0.0000 (  5036 PWs)   bands (ev):

   -13.0972  -7.4539  -6.3851  -3.4625   2.1690   2.7663   4.3979   4.7344

          k = 0.3330-0.0962 0.0000 (  5043 PWs)   bands (ev):

   -13.3315  -7.7005  -5.6750  -3.6506   2.3767   3.1605   4.0514   4.7856

          k = 0.3333-0.0012 0.0000 (  5043 PWs)   bands (ev):

   -13.4128  -7.7863  -5.2212  -3.9772   2.2442   3.5486   4.1632   4.6517

          k = 0.3337 0.0938 0.0000 (  5043 PWs)   bands (ev):

   -13.3315  -7.7005  -5.6752  -3.6503   2.3767   3.1603   4.0514   4.7855

          k = 0.3340 0.1888 0.0000 (  5036 PWs)   bands (ev):

   -13.0972  -7.4540  -6.3853  -3.4622   2.1688   2.7662   4.3978   4.7350

          k = 0.3344 0.2838 0.0000 (  5056 PWs)   bands (ev):

   -12.7430  -7.0835  -6.9748  -3.9165   1.2253   3.3989   5.0432   5.1093

          k = 0.3306-0.7612 0.0000 (  5051 PWs)   bands (ev):

   -12.3373  -7.3342  -6.6617  -4.8070   0.4816   4.2439   5.7105   6.2860

          k = 0.3309-0.6662 0.0000 (  5056 PWs)   bands (ev):

   -11.9970  -7.4159  -6.3078  -5.7011  -0.0066   5.1310   5.4798   7.1168

          k = 0.3313-0.5712 0.0000 (  5049 PWs)   bands (ev):

   -11.8611  -7.3520  -6.1656  -6.1311  -0.1807   5.2182   5.5533   7.4866

          k = 0.3316-0.4762 0.0000 (  5056 PWs)   bands (ev):

   -11.9970  -7.4159  -6.3077  -5.7012  -0.0066   5.1311   5.4797   7.1170

          k = 0.3320-0.3812 0.0000 (  5051 PWs)   bands (ev):

   -12.3372  -7.3342  -6.6616  -4.8072   0.4817   4.2441   5.7105   6.2853

          k = 0.3323-0.2862 0.0000 (  5056 PWs)   bands (ev):

   -12.7428  -7.0834  -6.9747  -3.9168   1.2255   3.3990   5.0434   5.1086

          k = 0.4158-0.2390 0.0000 (  5035 PWs)   bands (ev):

   -12.5439  -7.3668  -6.9835  -3.8458   1.1797   3.9319   4.5436   5.6273

          k = 0.4162-0.1440 0.0000 (  5059 PWs)   bands (ev):

   -12.7527  -7.1790  -6.8012  -4.1281   1.9053   3.4498   4.9647   5.1642

          k = 0.4165-0.0490 0.0000 (  5060 PWs)   bands (ev):

   -12.8724  -7.2907  -6.0999  -4.8016   2.7221   3.1938   4.3885   5.6402

          k = 0.4168 0.0460 0.0000 (  5060 PWs)   bands (ev):

   -12.8724  -7.2907  -6.1001  -4.8014   2.7219   3.1937   4.3886   5.6401

          k = 0.4172 0.1410 0.0000 (  5059 PWs)   bands (ev):

   -12.7528  -7.1791  -6.8014  -4.1277   1.9051   3.4498   4.9647   5.1648

          k = 0.4175 0.2360 0.0000 (  5035 PWs)   bands (ev):

   -12.5440  -7.3669  -6.9835  -3.8454   1.1795   3.9317   4.5442   5.6272

          k = 0.4138-0.8090 0.0000 (  5051 PWs)   bands (ev):

   -12.3076  -7.6288  -6.7564  -4.2621   0.7457   4.5565   5.0265   6.3322

          k = 0.4141-0.7140 0.0000 (  5056 PWs)   bands (ev):

   -12.1187  -7.5047  -6.5618  -5.1526   0.6218   5.0971   5.7364   6.2647

          k = 0.4144-0.6190 0.0000 (  5053 PWs)   bands (ev):

   -12.0224  -6.9914  -6.4520  -6.1339   0.6782   4.9239   5.2055   7.2606

          k = 0.4148-0.5240 0.0000 (  5053 PWs)   bands (ev):

   -12.0223  -6.9913  -6.4520  -6.1341   0.6783   4.9238   5.2055   7.2610

          k = 0.4151-0.4290 0.0000 (  5056 PWs)   bands (ev):

   -12.1186  -7.5046  -6.5617  -5.1529   0.6219   5.0972   5.7362   6.2640

          k = 0.4155-0.3340 0.0000 (  5051 PWs)   bands (ev):

   -12.3075  -7.6287  -6.7563  -4.2624   0.7459   4.5566   5.0258   6.3323

          k =-0.4990 0.2868 0.0000 (  5038 PWs)   bands (ev):

   -12.2893  -7.7734  -6.7865  -3.9732   0.7973   4.4579   4.8395   6.2510

          k =-0.4986 0.3818 0.0000 (  5049 PWs)   bands (ev):

   -12.3133  -7.5718  -6.7984  -4.3295   0.9792   4.6144   5.0053   6.1772

          k =-0.4983 0.4768 0.0000 (  5054 PWs)   bands (ev):

   -12.3595  -7.0148  -6.8220  -5.1570   1.4294   4.3240   5.1635   6.3372

          k =-0.4979 0.5718 0.0000 (  5075 PWs)   bands (ev):

   -12.3817  -6.8336  -6.3900  -5.9019   1.7346   4.2132   4.6263   6.6746

          k =-0.4976 0.6668 0.0000 (  5054 PWs)   bands (ev):

   -12.3595  -7.0150  -6.8221  -5.1567   1.4292   4.3240   5.1637   6.3379

          k =-0.4973 0.7618 0.0000 (  5049 PWs)   bands (ev):

   -12.3135  -7.5719  -6.7985  -4.3292   0.9790   4.6143   5.0060   6.1773

          k =-0.5010-0.2832 0.0000 (  5038 PWs)   bands (ev):

   -12.2895  -7.7735  -6.7866  -3.9728   0.7971   4.4585   4.8393   6.2507

     the Fermi energy is    -1.2925 ev

!    total energy              =     -15.10428428 Ry
     estimated scf accuracy    <          8.7E-09 Ry
     smearing contrib. (-TS)   =      -0.00015532 Ry
     internal energy E=F+TS    =     -15.10412896 Ry

     The total energy is F=E-TS. E is the sum of the following terms:
     one-electron contribution =     -65.59918775 Ry
     hartree contribution      =      34.35998490 Ry
     xc contribution           =      -7.33736435 Ry
     ewald contribution        =      23.47243824 Ry
     electric field correction =       0.00000000 Ry

     convergence has been achieved in   7 iterations

     negative rho (up, down):  3.328E-05 0.000E+00

     Forces acting on atoms (cartesian axes, Ry/au):

     atom    1 type  1   force =    -0.00001380   -0.00198731   -0.00000385
     atom    2 type  1   force =     0.00002736    0.00492303   -0.00000392
     atom    3 type  2   force =    -0.00000679   -0.00146783   -0.00000312
     atom    4 type  2   force =    -0.00000677   -0.00146789    0.00001089
     The non-local contrib.  to forces
     atom    1 type  1   force =    -0.00127820   -0.35599885   -0.00000956
     atom    2 type  1   force =     0.00131189    0.36136271   -0.00000976
     atom    3 type  2   force =    -0.00000268    0.00056997   -0.11268413
     atom    4 type  2   force =    -0.00000267    0.00056999    0.11268741
     The ionic contribution  to forces
     atom    1 type  1   force =     0.00246004    0.67817742    0.00000000
     atom    2 type  1   force =    -0.00248351   -0.66724826    0.00000000
     atom    3 type  2   force =     0.00001174   -0.00546458    2.56729175
     atom    4 type  2   force =     0.00001174   -0.00546458   -2.56729175
     The local contribution  to forces
     atom    1 type  1   force =    -0.00122357   -0.33202743    0.00007136
     atom    2 type  1   force =     0.00122811    0.31893777    0.00007165
     atom    3 type  2   force =    -0.00001577    0.00342958   -2.45459785
     atom    4 type  2   force =    -0.00001577    0.00342960    2.45462165
     The core correction contribution to forces
     atom    1 type  1   force =     0.00002798    0.00784126   -0.00000019
     atom    2 type  1   force =    -0.00002915   -0.00811035   -0.00000020
     atom    3 type  2   force =     0.00000000    0.00000000    0.00000000
     atom    4 type  2   force =     0.00000000    0.00000000    0.00000000
     The Hubbard contrib.    to forces
     atom    1 type  1   force =     0.00000000    0.00000000    0.00000000
     atom    2 type  1   force =     0.00000000    0.00000000    0.00000000
     atom    3 type  2   force =     0.00000000    0.00000000    0.00000000
     atom    4 type  2   force =     0.00000000    0.00000000    0.00000000
     The SCF correction term to forces
     atom    1 type  1   force =     0.00000005    0.00002061   -0.00008386
     atom    2 type  1   force =     0.00000013   -0.00001852   -0.00008403
     atom    3 type  2   force =     0.00000003   -0.00000249   -0.00002199
     atom    4 type  2   force =     0.00000003   -0.00000258   -0.00001552

     Total force =     0.005701     Total SCF correction =     0.000125

     Writing all to output data dir ./TMPDIR/pwscf.save/
 
     init_run     :     14.06s CPU     14.21s WALL (       1 calls)
     electrons    :      4.46s CPU      4.71s WALL (       1 calls)
     forces       :      0.19s CPU      0.19s WALL (       1 calls)

     Called by init_run:
     wfcinit      :      0.20s CPU      0.21s WALL (       1 calls)
     potinit      :     13.70s CPU     13.85s WALL (       1 calls)
     hinit0       :      0.12s CPU      0.13s WALL (       1 calls)

     Called by electrons:
     c_bands      :      3.43s CPU      3.57s WALL (       7 calls)
     sum_band     :      0.58s CPU      0.62s WALL (       7 calls)
     v_of_rho     :     14.03s CPU     14.20s WALL (       8 calls)
     newd         :      0.05s CPU      0.05s WALL (       8 calls)
     mix_rho      :      0.02s CPU      0.02s WALL (       7 calls)
     vdW_kernel   :     13.60s CPU     13.73s WALL (       1 calls)

     Called by c_bands:
     init_us_2    :      0.09s CPU      0.10s WALL (    1184 calls)
     init_us_2:cp :      0.09s CPU      0.09s WALL (    1184 calls)
     cegterg      :      3.26s CPU      3.40s WALL (     518 calls)

     Called by *egterg:
     cdiaghg      :      0.23s CPU      0.24s WALL (    2356 calls)
     h_psi        :      2.78s CPU      2.89s WALL (    2430 calls)
     s_psi        :      0.06s CPU      0.07s WALL (    2430 calls)
     g_psi        :      0.03s CPU      0.03s WALL (    1838 calls)

     Called by h_psi:
     h_psi:calbec :      0.12s CPU      0.12s WALL (    2430 calls)
     vloc_psi     :      2.57s CPU      2.68s WALL (    2430 calls)
     add_vuspsi   :      0.07s CPU      0.07s WALL (    2430 calls)

     General routines
     calbec       :      0.15s CPU      0.16s WALL (    3244 calls)
     fft          :      0.26s CPU      0.27s WALL (     563 calls)
     ffts         :      0.00s CPU      0.00s WALL (      15 calls)
     fftw         :      2.61s CPU      2.72s WALL (   29390 calls)
     interpolate  :      0.00s CPU      0.00s WALL (       8 calls)
 
     Parallel routines
 
     PWSCF        :     18.83s CPU     19.92s WALL

 
   This run was terminated on:  18:25:23  12Mar2024            

=------------------------------------------------------------------------------=
   JOB DONE.
=------------------------------------------------------------------------------=
