[0] MPI startup(): I_MPI_TCP_NETMASK variable has been removed from the product, its value is ignored


     Program PWSCF v.7.2 starts on 12Mar2024 at 18:25: 0 

     This program is part of the open-source Quantum ESPRESSO suite
     for quantum simulation of materials; please cite
         "P. Giannozzi et al., J. Phys.:Condens. Matter 21 395502 (2009);
         "P. Giannozzi et al., J. Phys.:Condens. Matter 29 465901 (2017);
         "P. Giannozzi et al., J. Chem. Phys. 152 154105 (2020);
          URL http://www.quantum-espresso.org", 
     in publications or presentations arising from this work. More details at
     http://www.quantum-espresso.org/quote

     Parallel version (MPI), running on    16 processors

     MPI processes distributed on     1 nodes
     28590 MiB available memory on the printing compute node when the environment starts
 
     Reading input from espresso.pwi
Warning: card &CELL ignored
Warning: card / ignored

     Current dimensions of program PWSCF are:
     Max number of different atomic species (ntypx) = 10
     Max number of k-points (npk) =  40000
     Max angular momentum in pseudopotentials (lmaxx) =  4
     Presently no symmetry can be used with electric field


     IMPORTANT: XC functional enforced from input :
     Exchange-correlation= VDW-DF2-B86R
                           (   1   4  26   0   2   0   0)
     Any further DFT definition will be discarded
     Please, verify this is what you really want

 
     R & G space division:  proc/nbgrp/npool/nimage =      16
     Subspace diagonalization in iterative solution of the eigenvalue problem:
     a serial algorithm will be used

 
     Parallelization info
     --------------------
     sticks:   dense  smooth     PW     G-vecs:    dense   smooth      PW
     Min          67      34     10                 7115     2515     444
     Max          68      36     11                 7126     2519     463
     Sum        1085     551    167               113933    40273    7201
 
     Using Slab Decomposition
 


     bravais-lattice index     =            0
     lattice parameter (alat)  =       5.6973  a.u.
     unit-cell volume          =     642.1518 (a.u.)^3
     number of atoms/cell      =            4
     number of atomic types    =            2
     number of electrons       =         8.00
     number of Kohn-Sham states=            8
     kinetic-energy cutoff     =      60.0000  Ry
     charge density cutoff     =     480.0000  Ry
     scf convergence threshold =      1.0E-06
     mixing beta               =       0.7000
     number of iterations used =            8  plain     mixing
     Exchange-correlation= VDW-DF2-B86R
                           (   1   4  26   0   2   0   0)

     celldm(1)=   5.697334  celldm(2)=   0.000000  celldm(3)=   0.000000
     celldm(4)=   0.000000  celldm(5)=   0.000000  celldm(6)=   0.000000

     crystal axes: (cart. coord. in units of alat)
               a(1) = (   0.999994  -0.003591   0.000000 )  
               a(2) = (   0.503167   0.875437   0.000000 )  
               a(3) = (   0.000000   0.000000   3.958265 )  

     reciprocal axes: (cart. coord. in units 2 pi/alat)
               b(1) = (  0.997946 -0.573581  0.000000 )  
               b(2) = (  0.004094  1.139933  0.000000 )  
               b(3) = (  0.000000  0.000000  0.252636 )  


     PseudoPot. # 1 for B  read from file:
     /home/krojas/QE/pseudo/b_pbe_v1.4.uspp.F.UPF
     MD5 check sum: cc6de2960df11db49a60e589f9ebb39b
     Pseudo is Ultrasoft + core correction, Zval =  3.0
     Generated by new atomic code, or converted to UPF format
     Using radial grid of  781 points,  4 beta functions with: 
                l(1) =   0
                l(2) =   0
                l(3) =   1
                l(4) =   1
     Q(r) pseudized with  8 coefficients,  rinner =    1.100   1.100   1.100


     PseudoPot. # 2 for H  read from file:
     /home/krojas/QE/pseudo/h_pbe_v1.4.uspp.F.UPF
     MD5 check sum: 761ae9a214b05c3daf00ab9f6b793d6f
     Pseudo is Ultrasoft, Zval =  1.0
     Generated by new atomic code, or converted to UPF format
     Using radial grid of  615 points,  2 beta functions with: 
                l(1) =   0
                l(2) =   0
     Q(r) pseudized with  8 coefficients,  rinner =    0.700

     atomic species   valence    mass     pseudopotential
        B              3.00    10.81000     B ( 1.00)
        H              1.00     1.00800     H ( 1.00)

     No symmetry found



   Cartesian axes

     site n.     atom                  positions (alat units)
         1           B   tau(   1) = (   0.0000000   0.0000000   1.9791325  )
         2           B   tau(   2) = (   0.4976488   0.2715580   1.9791325  )
         3           H   tau(   3) = (   0.5020846   0.5735104   2.2998349  )
         4           H   tau(   4) = (   0.5020846   0.5735104   1.6584302  )

     number of k points=    74  Gaussian smearing, width (Ry)=  0.0100
                       cart. coord. in units 2pi/alat
        k(    1) = (   0.0000000   0.0000000   0.0000000), wk =   0.0138889
        k(    2) = (   0.0003412   0.0949944   0.0000000), wk =   0.0277778
        k(    3) = (   0.0006823   0.1899889   0.0000000), wk =   0.0277778
        k(    4) = (   0.0010235   0.2849833   0.0000000), wk =   0.0277778
        k(    5) = (   0.0013646   0.3799777   0.0000000), wk =   0.0277778
        k(    6) = (   0.0017058   0.4749722   0.0000000), wk =   0.0277778
        k(    7) = (  -0.0020470  -0.5699666   0.0000000), wk =   0.0138889
        k(    8) = (   0.0831622  -0.0477984   0.0000000), wk =   0.0277778
        k(    9) = (   0.0835034   0.0471960   0.0000000), wk =   0.0277778
        k(   10) = (   0.0838445   0.1421905   0.0000000), wk =   0.0277778
        k(   11) = (   0.0841857   0.2371849   0.0000000), wk =   0.0277778
        k(   12) = (   0.0845269   0.3321793   0.0000000), wk =   0.0277778
        k(   13) = (   0.0848680   0.4271738   0.0000000), wk =   0.0277778
        k(   14) = (   0.0811152  -0.6177650   0.0000000), wk =   0.0277778
        k(   15) = (   0.0814564  -0.5227706   0.0000000), wk =   0.0277778
        k(   16) = (   0.0817976  -0.4277762   0.0000000), wk =   0.0277778
        k(   17) = (   0.0821387  -0.3327817   0.0000000), wk =   0.0277778
        k(   18) = (   0.0824799  -0.2377873   0.0000000), wk =   0.0277778
        k(   19) = (   0.0828210  -0.1427928   0.0000000), wk =   0.0277778
        k(   20) = (   0.1663244  -0.0955968   0.0000000), wk =   0.0277778
        k(   21) = (   0.1666656  -0.0006024   0.0000000), wk =   0.0277778
        k(   22) = (   0.1670067   0.0943921   0.0000000), wk =   0.0277778
        k(   23) = (   0.1673479   0.1893865   0.0000000), wk =   0.0277778
        k(   24) = (   0.1676891   0.2843809   0.0000000), wk =   0.0277778
        k(   25) = (   0.1680302   0.3793754   0.0000000), wk =   0.0277778
        k(   26) = (   0.1642774  -0.6655634   0.0000000), wk =   0.0277778
        k(   27) = (   0.1646186  -0.5705690   0.0000000), wk =   0.0277778
        k(   28) = (   0.1649598  -0.4755746   0.0000000), wk =   0.0277778
        k(   29) = (   0.1653009  -0.3805801   0.0000000), wk =   0.0277778
        k(   30) = (   0.1656421  -0.2855857   0.0000000), wk =   0.0277778
        k(   31) = (   0.1659833  -0.1905913   0.0000000), wk =   0.0277778
        k(   32) = (   0.2494866  -0.1433952   0.0000000), wk =   0.0277778
        k(   33) = (   0.2498278  -0.0484008   0.0000000), wk =   0.0277778
        k(   34) = (   0.2501689   0.0465936   0.0000000), wk =   0.0277778
        k(   35) = (   0.2505101   0.1415881   0.0000000), wk =   0.0277778
        k(   36) = (   0.2508513   0.2365825   0.0000000), wk =   0.0277778
        k(   37) = (   0.2511924   0.3315769   0.0000000), wk =   0.0277778
        k(   38) = (   0.2474397  -0.7133618   0.0000000), wk =   0.0277778
        k(   39) = (   0.2477808  -0.6183674   0.0000000), wk =   0.0277778
        k(   40) = (   0.2481220  -0.5233730   0.0000000), wk =   0.0277778
        k(   41) = (   0.2484631  -0.4283785   0.0000000), wk =   0.0277778
        k(   42) = (   0.2488043  -0.3333841   0.0000000), wk =   0.0277778
        k(   43) = (   0.2491455  -0.2383897   0.0000000), wk =   0.0277778
        k(   44) = (   0.3326488  -0.1911936   0.0000000), wk =   0.0277778
        k(   45) = (   0.3329900  -0.0961992   0.0000000), wk =   0.0277778
        k(   46) = (   0.3333312  -0.0012048   0.0000000), wk =   0.0277778
        k(   47) = (   0.3336723   0.0937897   0.0000000), wk =   0.0277778
        k(   48) = (   0.3340135   0.1887841   0.0000000), wk =   0.0277778
        k(   49) = (   0.3343546   0.2837785   0.0000000), wk =   0.0277778
        k(   50) = (   0.3306019  -0.7611603   0.0000000), wk =   0.0277778
        k(   51) = (   0.3309430  -0.6661658   0.0000000), wk =   0.0277778
        k(   52) = (   0.3312842  -0.5711714   0.0000000), wk =   0.0277778
        k(   53) = (   0.3316253  -0.4761769   0.0000000), wk =   0.0277778
        k(   54) = (   0.3319665  -0.3811825   0.0000000), wk =   0.0277778
        k(   55) = (   0.3323077  -0.2861881   0.0000000), wk =   0.0277778
        k(   56) = (   0.4158110  -0.2389921   0.0000000), wk =   0.0277778
        k(   57) = (   0.4161522  -0.1439976   0.0000000), wk =   0.0277778
        k(   58) = (   0.4164934  -0.0490032   0.0000000), wk =   0.0277778
        k(   59) = (   0.4168345   0.0459913   0.0000000), wk =   0.0277778
        k(   60) = (   0.4171757   0.1409857   0.0000000), wk =   0.0277778
        k(   61) = (   0.4175169   0.2359801   0.0000000), wk =   0.0277778
        k(   62) = (   0.4137641  -0.8089587   0.0000000), wk =   0.0277778
        k(   63) = (   0.4141052  -0.7139642   0.0000000), wk =   0.0277778
        k(   64) = (   0.4144464  -0.6189698   0.0000000), wk =   0.0277778
        k(   65) = (   0.4147876  -0.5239754   0.0000000), wk =   0.0277778
        k(   66) = (   0.4151287  -0.4289809   0.0000000), wk =   0.0277778
        k(   67) = (   0.4154699  -0.3339865   0.0000000), wk =   0.0277778
        k(   68) = (  -0.4989732   0.2867905   0.0000000), wk =   0.0138889
        k(   69) = (  -0.4986321   0.3817849   0.0000000), wk =   0.0277778
        k(   70) = (  -0.4982909   0.4767793   0.0000000), wk =   0.0277778
        k(   71) = (  -0.4979498   0.5717738   0.0000000), wk =   0.0277778
        k(   72) = (  -0.4976086   0.6667682   0.0000000), wk =   0.0277778
        k(   73) = (  -0.4972674   0.7617626   0.0000000), wk =   0.0277778
        k(   74) = (  -0.5010202  -0.2831762   0.0000000), wk =   0.0138889

     Dense  grid:   113933 G-vectors     FFT dimensions: (  40,  45, 160)

     Smooth grid:    40273 G-vectors     FFT dimensions: (  30,  30, 120)

     Estimated max dynamical RAM per process >      13.53 MB

     Estimated total dynamical RAM >     216.40 MB

     Initial potential from superposition of free atoms

     starting charge       7.9994, renormalised to       8.0000

     negative rho (up, down):  1.264E-05 0.000E+00


     %%%%%%%%%%%%%%%%%%%%%%%%%%%%%%%%%%%%%%%%%%%%%%%%%%%%%%%%%%%%%%%%%%%%%%%%
     %                                                                      %
     % You are using vdW-DF, which was implemented by the Thonhauser group. %
     % Please cite the following two papers that made this development      %
     % possible and the two reviews that describe the various versions:     %
     %                                                                      %
     %   T. Thonhauser et al., PRL 115, 136402 (2015).                      %
     %   T. Thonhauser et al., PRB 76, 125112 (2007).                       %
     %   K. Berland et al., Rep. Prog. Phys. 78, 066501 (2015).             %
     %   D.C. Langreth et al., J. Phys.: Condens. Matter 21, 084203 (2009). %
     %                                                                      %
     % If you are calculating stress with vdW-DF, please also cite:         %
     %                                                                      %
     %   R. Sabatini et al., J. Phys.: Condens. Matter 24, 424209 (2012).   %
     %                                                                      %
     %%%%%%%%%%%%%%%%%%%%%%%%%%%%%%%%%%%%%%%%%%%%%%%%%%%%%%%%%%%%%%%%%%%%%%%%

     %%%%%%%%%%%%%%%%%%%%%%%%%%%%%%%%%%%%%%%%%%%%%%%%%%%%%%%%%%%%%%%%%%%%%%%%
     %                                                                      %
     %  vdW-DF NEWS:                                                        %
     %                                                                      %
     %  * vdW-DF3 is now available. DOI: 10.1021/acs.jctc.0c00471           %
     %    use with input_dft = 'vdW-DF3-opt1' or 'vdW-DF3-opt2'             %
     %                                                                      %
     %  * Unscreened and range-separated hybrid vdW-DF-cx functionals       %
     %    DOI: 10.1063/1.4986522 and 10.1088/1361-648X/ac2ad2               %
     %    use with input_dft = 'vdW-DF-cx0'    and 'vdW-DF-ahcx'            %
     %  * Unscreened and range-separated hybrid vdW-DF2-b86r functionals    %
     %    DOI: 10.1063/1.4986522 and DOI: 10.1103/PhysRevX.12.041003        %
     %    use with input_dft = 'vdW-DF2-br0' and 'vdW-DF2-ahbr'             %
     %                                                                      %
     %%%%%%%%%%%%%%%%%%%%%%%%%%%%%%%%%%%%%%%%%%%%%%%%%%%%%%%%%%%%%%%%%%%%%%%%


 
     Adding external electric field

     Computed dipole along edir(3) : 
        Dipole               -0.0000 Ry au,         -0.0000 Debye
        Dipole field         -0.0000 Ry au, 
 
        Potential amp.        0.0000 Ry
        Total length         22.5493 bohr
 
     Starting wfcs are   10 randomized atomic wfcs

     total cpu time spent up to now is       14.3 secs

     Self-consistent Calculation

     iteration #  1     ecut=    60.00 Ry     beta= 0.70
     Davidson diagonalization with overlap
     ethr =  1.00E-02,  avg # of iterations =  3.8

     negative rho (up, down):  1.269E-05 0.000E+00
 
     Adding external electric field

     Computed dipole along edir(3) : 
        Dipole               -0.0001 Ry au,         -0.0003 Debye
        Dipole field         -0.0000 Ry au, 
 
        Potential amp.        0.0001 Ry
        Total length         22.5493 bohr
 

     total cpu time spent up to now is       15.0 secs

     total energy              =     -15.04539026 Ry
     estimated scf accuracy    <       0.32929941 Ry

     iteration #  2     ecut=    60.00 Ry     beta= 0.70
     Davidson diagonalization with overlap
     ethr =  4.12E-03,  avg # of iterations =  3.7

     negative rho (up, down):  2.183E-05 0.000E+00
 
     Adding external electric field

     Computed dipole along edir(3) : 
        Dipole                0.0001 Ry au,          0.0003 Debye
        Dipole field          0.0000 Ry au, 
 
        Potential amp.       -0.0001 Ry
        Total length         22.5493 bohr
 

     total cpu time spent up to now is       15.7 secs

     total energy              =     -15.10075955 Ry
     estimated scf accuracy    <       0.01903403 Ry

     iteration #  3     ecut=    60.00 Ry     beta= 0.70
     Davidson diagonalization with overlap
     ethr =  2.38E-04,  avg # of iterations =  5.0

     negative rho (up, down):  3.100E-05 0.000E+00
 
     Adding external electric field

     Computed dipole along edir(3) : 
        Dipole               -0.0004 Ry au,         -0.0010 Debye
        Dipole field         -0.0000 Ry au, 
 
        Potential amp.        0.0003 Ry
        Total length         22.5493 bohr
 

     total cpu time spent up to now is       16.5 secs

     total energy              =     -15.10411875 Ry
     estimated scf accuracy    <       0.00059013 Ry

     iteration #  4     ecut=    60.00 Ry     beta= 0.70
     Davidson diagonalization with overlap
     ethr =  7.38E-06,  avg # of iterations =  5.5

     negative rho (up, down):  3.285E-05 0.000E+00
 
     Adding external electric field

     Computed dipole along edir(3) : 
        Dipole                0.0009 Ry au,          0.0024 Debye
        Dipole field          0.0000 Ry au, 
 
        Potential amp.       -0.0008 Ry
        Total length         22.5493 bohr
 

     total cpu time spent up to now is       17.3 secs

     total energy              =     -15.10421128 Ry
     estimated scf accuracy    <       0.00000740 Ry

     iteration #  5     ecut=    60.00 Ry     beta= 0.70
     Davidson diagonalization with overlap
     ethr =  9.25E-08,  avg # of iterations =  3.0

     negative rho (up, down):  3.323E-05 0.000E+00
 
     Adding external electric field

     Computed dipole along edir(3) : 
        Dipole               -0.0009 Ry au,         -0.0023 Debye
        Dipole field         -0.0000 Ry au, 
 
        Potential amp.        0.0008 Ry
        Total length         22.5493 bohr
 

     total cpu time spent up to now is       17.9 secs

     total energy              =     -15.10421369 Ry
     estimated scf accuracy    <       0.00000176 Ry

     iteration #  6     ecut=    60.00 Ry     beta= 0.70
     Davidson diagonalization with overlap
     ethr =  2.20E-08,  avg # of iterations =  2.0

     negative rho (up, down):  3.338E-05 0.000E+00
 
     Adding external electric field

     Computed dipole along edir(3) : 
        Dipole                0.0001 Ry au,          0.0001 Debye
        Dipole field          0.0000 Ry au, 
 
        Potential amp.       -0.0001 Ry
        Total length         22.5493 bohr
 

     total cpu time spent up to now is       18.5 secs

     total energy              =     -15.10421408 Ry
     estimated scf accuracy    <       0.00000131 Ry

     iteration #  7     ecut=    60.00 Ry     beta= 0.70
     Davidson diagonalization with overlap
     ethr =  1.64E-08,  avg # of iterations =  1.8

     negative rho (up, down):  3.346E-05 0.000E+00
 
     Adding external electric field

     Computed dipole along edir(3) : 
        Dipole               -0.0001 Ry au,         -0.0004 Debye
        Dipole field         -0.0000 Ry au, 
 
        Potential amp.        0.0001 Ry
        Total length         22.5493 bohr
 

     total cpu time spent up to now is       19.0 secs

     End of self-consistent calculation

          k = 0.0000 0.0000 0.0000 (  5017 PWs)   bands (ev):

   -14.5319  -8.8546  -3.0992  -0.6462   0.5635   1.9353   2.9054   5.5906

          k = 0.0003 0.0950 0.0000 (  4979 PWs)   bands (ev):

   -14.4332  -8.7369  -3.4856  -0.8930   0.6863   2.0764   3.0332   5.6997

          k = 0.0007 0.1900 0.0000 (  4988 PWs)   bands (ev):

   -14.1422  -8.3891  -4.4734  -1.4595   1.0701   2.4814   3.4237   3.9680

          k = 0.0010 0.2850 0.0000 (  5020 PWs)   bands (ev):

   -13.6770  -7.8310  -5.7402  -2.0754   1.7177   1.9058   3.2998   4.0493

          k = 0.0014 0.3800 0.0000 (  5038 PWs)   bands (ev):

   -13.0839  -7.1138  -7.0188  -2.5820   0.1865   2.5846   4.2668   4.6367

          k = 0.0017 0.4750 0.0000 (  5038 PWs)   bands (ev):

   -12.4871  -8.0642  -6.3818  -2.9061  -1.1729   3.4609   4.9181   5.5256

          k =-0.0020-0.5700 0.0000 (  5036 PWs)   bands (ev):

   -12.1969  -8.5096  -6.0188  -3.0171  -1.7476   3.7902   5.6263   6.1142

          k = 0.0832-0.0478 0.0000 (  5007 PWs)   bands (ev):

   -14.4334  -8.7542  -3.3679  -1.0456   0.6995   2.0762   3.0472   5.6268

          k = 0.0835 0.0472 0.0000 (  5007 PWs)   bands (ev):

   -14.4334  -8.7535  -3.3848  -1.0211   0.6992   2.0765   3.0470   5.6997

          k = 0.0838 0.1422 0.0000 (  5003 PWs)   bands (ev):

   -14.2389  -8.5218  -4.0826  -1.4150   0.9525   2.3516   3.3080   4.8361

          k = 0.0842 0.2372 0.0000 (  5010 PWs)   bands (ev):

   -13.8607  -8.0711  -5.1770  -2.0577   1.4740   2.6164   3.1973   3.8349

          k = 0.0845 0.3322 0.0000 (  5029 PWs)   bands (ev):

   -13.3287  -7.4347  -6.4078  -2.6853   1.0139   2.2499   3.8476   4.5703

          k = 0.0849 0.4272 0.0000 (  5030 PWs)   bands (ev):

   -12.7192  -7.5524  -6.7000  -3.1475  -0.5099   3.2061   4.9585   5.1313

          k = 0.0811-0.6178 0.0000 (  5055 PWs)   bands (ev):

   -12.2355  -8.3219  -6.1102  -3.3887  -1.5025   4.0009   5.5534   6.2884

          k = 0.0815-0.5228 0.0000 (  5055 PWs)   bands (ev):

   -12.2357  -8.3190  -6.1127  -3.3924  -1.4969   3.9962   5.5627   6.2830

          k = 0.0818-0.4278 0.0000 (  5030 PWs)   bands (ev):

   -12.7194  -7.5433  -6.7047  -3.1595  -0.4957   3.2021   4.9550   5.1261

          k = 0.0821-0.3328 0.0000 (  5029 PWs)   bands (ev):

   -13.3288  -7.4390  -6.3906  -2.7086   1.0339   2.2483   3.8459   4.5650

          k = 0.0825-0.2378 0.0000 (  5010 PWs)   bands (ev):

   -13.8606  -8.0743  -5.1499  -2.0954   1.4735   2.6293   3.2091   3.8332

          k = 0.0828-0.1428 0.0000 (  5003 PWs)   bands (ev):

   -14.2388  -8.5237  -4.0504  -1.4611   0.9528   2.3509   3.3078   4.8661

          k = 0.1663-0.0956 0.0000 (  5007 PWs)   bands (ev):

   -14.1442  -8.4630  -4.1053  -1.9353   1.1133   2.4873   3.4755   5.3448

          k = 0.1667-0.0006 0.0000 (  4991 PWs)   bands (ev):

   -14.2397  -8.5730  -3.7761  -1.8078   0.9845   2.3566   3.3436   5.9804

          k = 0.1670 0.0944 0.0000 (  5007 PWs)   bands (ev):

   -14.1443  -8.4603  -4.1560  -1.8660   1.1127   2.4884   3.4752   5.2914

          k = 0.1673 0.1894 0.0000 (  5031 PWs)   bands (ev):

   -13.8637  -8.1313  -4.9751  -2.3149   1.5033   2.7883   3.6852   3.8744

          k = 0.1677 0.2844 0.0000 (  5037 PWs)   bands (ev):

   -13.4183  -7.6100  -5.9657  -3.0503   1.7565   2.1608   3.7400   4.5440

          k = 0.1680 0.3794 0.0000 (  5046 PWs)   bands (ev):

   -12.8592  -6.9861  -6.9556  -3.7345   0.2800   3.0581   4.6673   5.4195

          k = 0.1643-0.6656 0.0000 (  5071 PWs)   bands (ev):

   -12.3129  -7.8462  -6.3168  -4.1806  -0.8757   4.0854   5.7989   6.1201

          k = 0.1646-0.5706 0.0000 (  5067 PWs)   bands (ev):

   -12.0574  -8.2098  -6.0208  -4.3371  -1.3429   4.6963   6.5079   6.8296

          k = 0.1650-0.4756 0.0000 (  5071 PWs)   bands (ev):

   -12.3137  -7.8316  -6.3247  -4.1983  -0.8543   4.0794   5.7864   6.1249

          k = 0.1653-0.3806 0.0000 (  5048 PWs)   bands (ev):

   -12.8596  -6.9650  -6.9555  -3.7733   0.3160   3.0553   4.6611   5.4118

          k = 0.1656-0.2856 0.0000 (  5037 PWs)   bands (ev):

   -13.4184  -7.6179  -5.9178  -3.1130   1.8007   2.1598   3.7396   4.5401

          k = 0.1660-0.1906 0.0000 (  5031 PWs)   bands (ev):

   -13.8635  -8.1367  -4.9157  -2.3956   1.5036   2.7929   3.7333   3.8731

          k = 0.2495-0.1434 0.0000 (  5031 PWs)   bands (ev):

   -13.6872  -8.0162  -5.1687  -2.8246   1.8069   3.0018   4.0175   4.1863

          k = 0.2498-0.0484 0.0000 (  5026 PWs)   bands (ev):

   -13.8663  -8.2158  -4.5619  -2.8336   1.5445   2.8943   3.9234   5.1606

          k = 0.2502 0.0466 0.0000 (  5026 PWs)   bands (ev):

   -13.8663  -8.2137  -4.6020  -2.7831   1.5440   2.8954   3.9230   5.1109

          k = 0.2505 0.1416 0.0000 (  5031 PWs)   bands (ev):

   -13.6873  -8.0097  -5.2393  -2.7297   1.8059   2.9933   3.9545   4.1866

          k = 0.2509 0.2366 0.0000 (  5038 PWs)   bands (ev):

   -13.3439  -7.6218  -6.0053  -3.1975   2.1503   2.3290   3.9537   4.7110

          k = 0.2512 0.3316 0.0000 (  5053 PWs)   bands (ev):

   -12.8747  -7.0952  -6.7339  -4.0314   0.9282   3.1068   4.6949   5.5165

          k = 0.2474-0.7134 0.0000 (  5056 PWs)   bands (ev):

   -12.3660  -7.3667  -6.5301  -4.8127  -0.1174   4.0850   5.5656   6.4698

          k = 0.2478-0.6184 0.0000 (  5062 PWs)   bands (ev):

   -11.9968  -7.7819  -6.1267  -5.2631  -0.7585   5.0276   5.9222   6.9518

          k = 0.2481-0.5234 0.0000 (  5062 PWs)   bands (ev):

   -11.9977  -7.7659  -6.1331  -5.2810  -0.7408   5.0226   5.9050   6.9801

          k = 0.2485-0.4284 0.0000 (  5056 PWs)   bands (ev):

   -12.3674  -7.3226  -6.5436  -4.8642  -0.0713   4.0814   5.5432   6.4644

          k = 0.2488-0.3334 0.0000 (  5053 PWs)   bands (ev):

   -12.8754  -7.1088  -6.6712  -4.1093   0.9903   3.1054   4.6886   5.5073

          k = 0.2491-0.2384 0.0000 (  5038 PWs)   bands (ev):

   -13.3441  -7.6323  -5.9338  -3.2923   2.2129   2.3292   3.9611   4.7041

          k = 0.3326-0.1912 0.0000 (  5036 PWs)   bands (ev):

   -13.1183  -7.4897  -6.3383  -3.4796   2.2212   2.7654   4.4057   4.7337

          k = 0.3330-0.0962 0.0000 (  5043 PWs)   bands (ev):

   -13.3499  -7.7313  -5.6424  -3.6505   2.3755   3.1856   4.0766   4.7819

          k = 0.3333-0.0012 0.0000 (  5043 PWs)   bands (ev):

   -13.4304  -7.8134  -5.2367  -3.9211   2.2425   3.5420   4.1841   4.6477

          k = 0.3337 0.0938 0.0000 (  5043 PWs)   bands (ev):

   -13.3498  -7.7251  -5.7066  -3.5695   2.3743   3.1487   4.0439   4.7812

          k = 0.3340 0.1888 0.0000 (  5036 PWs)   bands (ev):

   -13.1178  -7.4775  -6.4095  -3.3825   2.1488   2.7638   4.3942   4.7863

          k = 0.3344 0.2838 0.0000 (  5056 PWs)   bands (ev):

   -12.7676  -7.1081  -6.9922  -3.8417   1.2059   3.3984   5.0453   5.1678

          k = 0.3306-0.7612 0.0000 (  5051 PWs)   bands (ev):

   -12.3679  -7.3443  -6.6904  -4.7376   0.4709   4.2444   5.7332   6.3565

          k = 0.3309-0.6662 0.0000 (  5056 PWs)   bands (ev):

   -12.0344  -7.4137  -6.3441  -5.6409   0.0013   5.1295   5.5164   7.1076

          k = 0.3313-0.5712 0.0000 (  5049 PWs)   bands (ev):

   -11.9027  -7.3178  -6.2106  -6.1022  -0.1477   5.2377   5.5459   7.5015

          k = 0.3316-0.4762 0.0000 (  5056 PWs)   bands (ev):

   -12.0365  -7.3559  -6.3569  -5.7041   0.0469   5.1249   5.4809   7.1310

          k = 0.3320-0.3812 0.0000 (  5051 PWs)   bands (ev):

   -12.3701  -7.2748  -6.7085  -4.8205   0.5441   4.2421   5.7048   6.2775

          k = 0.3323-0.2862 0.0000 (  5056 PWs)   bands (ev):

   -12.7689  -7.1250  -6.9211  -3.9353   1.2867   3.3983   5.0447   5.1041

          k = 0.4158-0.2390 0.0000 (  5035 PWs)   bands (ev):

   -12.5726  -7.3096  -7.0277  -3.8679   1.2484   3.9307   4.5431   5.6284

          k = 0.4162-0.1440 0.0000 (  5059 PWs)   bands (ev):

   -12.7775  -7.2180  -6.7511  -4.1428   1.9658   3.4490   4.9648   5.1644

          k = 0.4165-0.0490 0.0000 (  5060 PWs)   bands (ev):

   -12.8950  -7.3243  -6.0714  -4.7898   2.7671   3.1928   4.3801   5.6360

          k = 0.4168 0.0460 0.0000 (  5060 PWs)   bands (ev):

   -12.8947  -7.3200  -6.1224  -4.7319   2.7256   3.1922   4.3859   5.6354

          k = 0.4172 0.1410 0.0000 (  5059 PWs)   bands (ev):

   -12.7764  -7.2054  -6.8178  -4.0567   1.8907   3.4469   4.9593   5.2158

          k = 0.4175 0.2360 0.0000 (  5035 PWs)   bands (ev):

   -12.5704  -7.3771  -7.0088  -3.7752   1.1608   3.9290   4.5915   5.6239

          k = 0.4138-0.8090 0.0000 (  5051 PWs)   bands (ev):

   -12.3377  -7.6346  -6.7831  -4.1947   0.7288   4.5618   5.0682   6.3447

          k = 0.4141-0.7140 0.0000 (  5056 PWs)   bands (ev):

   -12.1521  -7.5087  -6.5928  -5.0880   0.6149   5.0967   5.7738   6.3170

          k = 0.4144-0.6190 0.0000 (  5053 PWs)   bands (ev):

   -12.0581  -6.9947  -6.4897  -6.0720   0.6940   4.9488   5.2025   7.2539

          k = 0.4148-0.5240 0.0000 (  5053 PWs)   bands (ev):

   -12.0593  -6.9244  -6.4963  -6.1458   0.7250   4.9271   5.2016   7.2628

          k = 0.4151-0.4290 0.0000 (  5056 PWs)   bands (ev):

   -12.1550  -7.4389  -6.6100  -5.1691   0.6884   5.0928   5.7268   6.2599

          k = 0.4155-0.3340 0.0000 (  5051 PWs)   bands (ev):

   -12.3408  -7.5662  -6.8043  -4.2834   0.8177   4.5556   5.0207   6.3295

          k =-0.4990 0.2868 0.0000 (  5038 PWs)   bands (ev):

   -12.3229  -7.7108  -6.8350  -3.9964   0.8719   4.4584   4.8344   6.2586

          k =-0.4986 0.3818 0.0000 (  5049 PWs)   bands (ev):

   -12.3459  -7.5108  -6.8451  -4.3494   1.0506   4.6126   5.0036   6.1710

          k =-0.4983 0.4768 0.0000 (  5054 PWs)   bands (ev):

   -12.3899  -6.9589  -6.8640  -5.1679   1.4891   4.3230   5.1525   6.3410

          k =-0.4979 0.5718 0.0000 (  5075 PWs)   bands (ev):

   -12.4107  -6.8699  -6.3859  -5.8565   1.7638   4.2120   4.6291   6.6819

          k =-0.4976 0.6668 0.0000 (  5054 PWs)   bands (ev):

   -12.3884  -7.0254  -6.8531  -5.0913   1.4264   4.3219   5.1776   6.3957

          k =-0.4973 0.7618 0.0000 (  5049 PWs)   bands (ev):

   -12.3430  -7.5775  -6.8259  -4.2632   0.9640   4.6114   5.0541   6.1778

          k =-0.5010-0.2832 0.0000 (  5038 PWs)   bands (ev):

   -12.3195  -7.7773  -6.8127  -3.9059   0.7792   4.5058   4.8320   6.2488

     the Fermi energy is    -1.2486 ev

!    total energy              =     -15.10421430 Ry
     estimated scf accuracy    <       0.00000001 Ry
     smearing contrib. (-TS)   =      -0.00015609 Ry
     internal energy E=F+TS    =     -15.10405822 Ry

     The total energy is F=E-TS. E is the sum of the following terms:
     one-electron contribution =     -65.62250403 Ry
     hartree contribution      =      34.37193555 Ry
     xc contribution           =      -7.33890101 Ry
     ewald contribution        =      23.48541126 Ry
     electric field correction =       0.00000000 Ry

     convergence has been achieved in   7 iterations

     negative rho (up, down):  3.346E-05 0.000E+00

     Forces acting on atoms (cartesian axes, Ry/au):

     atom    1 type  1   force =    -0.00786142    0.00397808   -0.00000331
     atom    2 type  1   force =     0.00828240   -0.00392608   -0.00000335
     atom    3 type  2   force =    -0.00021046   -0.00002596    0.00107318
     atom    4 type  2   force =    -0.00021052   -0.00002603   -0.00106652
     The non-local contrib.  to forces
     atom    1 type  1   force =    -0.01225137   -0.35207393   -0.00001135
     atom    2 type  1   force =     0.01420126    0.35216388   -0.00001156
     atom    3 type  2   force =    -0.00069524    0.00001547   -0.11396208
     atom    4 type  2   force =    -0.00069528    0.00001547    0.11396594
     The ionic contribution  to forces
     atom    1 type  1   force =    -0.02198518    0.69509060    0.00000000
     atom    2 type  1   force =     0.01308402   -0.69481460    0.00000000
     atom    3 type  2   force =     0.00445058   -0.00013800    2.57649362
     atom    4 type  2   force =     0.00445058   -0.00013800   -2.57649362
     The local contribution  to forces
     atom    1 type  1   force =     0.02594111   -0.34673460    0.00008698
     atom    2 type  1   force =    -0.01856466    0.34642553    0.00008721
     atom    3 type  2   force =    -0.00396563    0.00009660   -2.46144191
     atom    4 type  2   force =    -0.00396567    0.00009660    2.46147011
     The core correction contribution to forces
     atom    1 type  1   force =     0.00043408    0.00767395   -0.00000004
     atom    2 type  1   force =    -0.00043802   -0.00767914   -0.00000003
     atom    3 type  2   force =     0.00000000    0.00000000    0.00000000
     atom    4 type  2   force =     0.00000000    0.00000000    0.00000000
     The Hubbard contrib.    to forces
     atom    1 type  1   force =     0.00000000    0.00000000    0.00000000
     atom    2 type  1   force =     0.00000000    0.00000000    0.00000000
     atom    3 type  2   force =     0.00000000    0.00000000    0.00000000
     atom    4 type  2   force =     0.00000000    0.00000000    0.00000000
     The SCF correction term to forces
     atom    1 type  1   force =     0.00000004    0.00002202   -0.00009921
     atom    2 type  1   force =    -0.00000010   -0.00002179   -0.00009927
     atom    3 type  2   force =    -0.00000006   -0.00000007   -0.00002570
     atom    4 type  2   force =    -0.00000004   -0.00000014   -0.00001821

     Total force =     0.012807     Total SCF correction =     0.000147

     Writing all to output data dir ./TMPDIR/pwscf.save/
 
     init_run     :     14.15s CPU     14.18s WALL (       1 calls)
     electrons    :      4.57s CPU      4.80s WALL (       1 calls)
     forces       :      0.20s CPU      0.21s WALL (       1 calls)

     Called by init_run:
     wfcinit      :      0.20s CPU      0.21s WALL (       1 calls)
     potinit      :     13.74s CPU     13.76s WALL (       1 calls)
     hinit0       :      0.18s CPU      0.18s WALL (       1 calls)

     Called by electrons:
     c_bands      :      3.48s CPU      3.60s WALL (       7 calls)
     sum_band     :      0.58s CPU      0.60s WALL (       7 calls)
     v_of_rho     :     14.13s CPU     14.18s WALL (       8 calls)
     newd         :      0.04s CPU      0.05s WALL (       8 calls)
     mix_rho      :      0.02s CPU      0.02s WALL (       7 calls)
     vdW_kernel   :     13.62s CPU     13.63s WALL (       1 calls)

     Called by c_bands:
     init_us_2    :      0.09s CPU      0.10s WALL (    1184 calls)
     init_us_2:cp :      0.09s CPU      0.09s WALL (    1184 calls)
     cegterg      :      3.31s CPU      3.43s WALL (     518 calls)

     Called by *egterg:
     cdiaghg      :      0.23s CPU      0.24s WALL (    2359 calls)
     h_psi        :      2.81s CPU      2.91s WALL (    2433 calls)
     s_psi        :      0.06s CPU      0.07s WALL (    2433 calls)
     g_psi        :      0.03s CPU      0.03s WALL (    1841 calls)

     Called by h_psi:
     h_psi:calbec :      0.12s CPU      0.12s WALL (    2433 calls)
     vloc_psi     :      2.60s CPU      2.70s WALL (    2433 calls)
     add_vuspsi   :      0.07s CPU      0.07s WALL (    2433 calls)

     General routines
     calbec       :      0.15s CPU      0.16s WALL (    3247 calls)
     fft          :      0.37s CPU      0.38s WALL (     563 calls)
     ffts         :      0.00s CPU      0.00s WALL (      15 calls)
     fftw         :      2.64s CPU      2.73s WALL (   29458 calls)
     interpolate  :      0.00s CPU      0.00s WALL (       8 calls)
 
     Parallel routines
 
     PWSCF        :     19.05s CPU     19.96s WALL

 
   This run was terminated on:  18:25:20  12Mar2024            

=------------------------------------------------------------------------------=
   JOB DONE.
=------------------------------------------------------------------------------=
