
     Program PWSCF v.7.2 starts on  1Dec2023 at 10:23:39 

     This program is part of the open-source Quantum ESPRESSO suite
     for quantum simulation of materials; please cite
         "P. Giannozzi et al., J. Phys.:Condens. Matter 21 395502 (2009);
         "P. Giannozzi et al., J. Phys.:Condens. Matter 29 465901 (2017);
         "P. Giannozzi et al., J. Chem. Phys. 152 154105 (2020);
          URL http://www.quantum-espresso.org", 
     in publications or presentations arising from this work. More details at
     http://www.quantum-espresso.org/quote

     Parallel version (MPI), running on     4 processors

     MPI processes distributed on     1 nodes
     12509 MiB available memory on the printing compute node when the environment starts
 
     Reading input from espresso.pwi
Warning: card &CELL ignored
Warning: card / ignored

     Current dimensions of program PWSCF are:
     Max number of different atomic species (ntypx) = 10
     Max number of k-points (npk) =  40000
     Max angular momentum in pseudopotentials (lmaxx) =  4

     IMPORTANT: XC functional enforced from input :
     Exchange-correlation= VDW-DF2-B86R
                           (   1   4  26   0   2   0   0)
     Any further DFT definition will be discarded
     Please, verify this is what you really want

     Message from routine setup:
     using ibrav=0 with symmetry is DISCOURAGED, use correct ibrav instead
 
     R & G space division:  proc/nbgrp/npool/nimage =       4
     Subspace diagonalization in iterative solution of the eigenvalue problem:
     a serial algorithm will be used

 
     Parallelization info
     --------------------
     sticks:   dense  smooth     PW     G-vecs:    dense   smooth      PW
     Min         271     137     41                28481    10067    1796
     Max         272     139     44                28485    10069    1803
     Sum        1085     551    167               113933    40273    7201
 
     Using Slab Decomposition
 


     bravais-lattice index     =            0
     lattice parameter (alat)  =       5.6973  a.u.
     unit-cell volume          =     642.1518 (a.u.)^3
     number of atoms/cell      =            4
     number of atomic types    =            2
     number of electrons       =         8.00
     number of Kohn-Sham states=            8
     kinetic-energy cutoff     =      60.0000  Ry
     charge density cutoff     =     480.0000  Ry
     scf convergence threshold =      1.0E-09
     mixing beta               =       0.7000
     number of iterations used =            8  plain     mixing
     Exchange-correlation= VDW-DF2-B86R
                           (   1   4  26   0   2   0   0)

     celldm(1)=   5.697334  celldm(2)=   0.000000  celldm(3)=   0.000000
     celldm(4)=   0.000000  celldm(5)=   0.000000  celldm(6)=   0.000000

     crystal axes: (cart. coord. in units of alat)
               a(1) = (   0.999994  -0.003591   0.000000 )  
               a(2) = (   0.503167   0.875437   0.000000 )  
               a(3) = (   0.000000   0.000000   3.958265 )  

     reciprocal axes: (cart. coord. in units 2 pi/alat)
               b(1) = (  0.997946 -0.573581  0.000000 )  
               b(2) = (  0.004094  1.139933  0.000000 )  
               b(3) = (  0.000000  0.000000  0.252636 )  


     PseudoPot. # 1 for B  read from file:
     /home/krojas/github_files/MatSciToolKit/tutorial/example_ase_vib_1/b_pbe_v1.4.uspp.F.UPF
     MD5 check sum: cc6de2960df11db49a60e589f9ebb39b
     Pseudo is Ultrasoft + core correction, Zval =  3.0
     Generated by new atomic code, or converted to UPF format
     Using radial grid of  781 points,  4 beta functions with: 
                l(1) =   0
                l(2) =   0
                l(3) =   1
                l(4) =   1
     Q(r) pseudized with  8 coefficients,  rinner =    1.100   1.100   1.100


     PseudoPot. # 2 for H  read from file:
     /home/krojas/github_files/MatSciToolKit/tutorial/example_ase_vib_1/h_pbe_v1.4.uspp.F.UPF
     MD5 check sum: 761ae9a214b05c3daf00ab9f6b793d6f
     Pseudo is Ultrasoft, Zval =  1.0
     Generated by new atomic code, or converted to UPF format
     Using radial grid of  615 points,  2 beta functions with: 
                l(1) =   0
                l(2) =   0
     Q(r) pseudized with  8 coefficients,  rinner =    0.700

     atomic species   valence    mass     pseudopotential
        B              3.00    10.81000     B ( 1.00)
        H              1.00     1.00800     H ( 1.00)

      2 Sym. Ops. (no inversion) found



   Cartesian axes

     site n.     atom                  positions (alat units)
         1           B   tau(   1) = (   0.0000000   0.0000000   1.9791325  )
         2           B   tau(   2) = (   0.5042825   0.2715580   1.9791325  )
         3           H   tau(   3) = (   0.5020846   0.5735104   2.2998349  )
         4           H   tau(   4) = (   0.5020846   0.5735104   1.6584302  )

     number of k points=    74  Gaussian smearing, width (Ry)=  0.0100
                       cart. coord. in units 2pi/alat
        k(    1) = (   0.0000000   0.0000000   0.0000000), wk =   0.0138889
        k(    2) = (   0.0003412   0.0949944   0.0000000), wk =   0.0277778
        k(    3) = (   0.0006823   0.1899889   0.0000000), wk =   0.0277778
        k(    4) = (   0.0010235   0.2849833   0.0000000), wk =   0.0277778
        k(    5) = (   0.0013646   0.3799777   0.0000000), wk =   0.0277778
        k(    6) = (   0.0017058   0.4749722   0.0000000), wk =   0.0277778
        k(    7) = (  -0.0020470  -0.5699666   0.0000000), wk =   0.0138889
        k(    8) = (   0.0831622  -0.0477984   0.0000000), wk =   0.0277778
        k(    9) = (   0.0835034   0.0471960   0.0000000), wk =   0.0277778
        k(   10) = (   0.0838445   0.1421905   0.0000000), wk =   0.0277778
        k(   11) = (   0.0841857   0.2371849   0.0000000), wk =   0.0277778
        k(   12) = (   0.0845269   0.3321793   0.0000000), wk =   0.0277778
        k(   13) = (   0.0848680   0.4271738   0.0000000), wk =   0.0277778
        k(   14) = (   0.0811152  -0.6177650   0.0000000), wk =   0.0277778
        k(   15) = (   0.0814564  -0.5227706   0.0000000), wk =   0.0277778
        k(   16) = (   0.0817976  -0.4277762   0.0000000), wk =   0.0277778
        k(   17) = (   0.0821387  -0.3327817   0.0000000), wk =   0.0277778
        k(   18) = (   0.0824799  -0.2377873   0.0000000), wk =   0.0277778
        k(   19) = (   0.0828210  -0.1427928   0.0000000), wk =   0.0277778
        k(   20) = (   0.1663244  -0.0955968   0.0000000), wk =   0.0277778
        k(   21) = (   0.1666656  -0.0006024   0.0000000), wk =   0.0277778
        k(   22) = (   0.1670067   0.0943921   0.0000000), wk =   0.0277778
        k(   23) = (   0.1673479   0.1893865   0.0000000), wk =   0.0277778
        k(   24) = (   0.1676891   0.2843809   0.0000000), wk =   0.0277778
        k(   25) = (   0.1680302   0.3793754   0.0000000), wk =   0.0277778
        k(   26) = (   0.1642774  -0.6655634   0.0000000), wk =   0.0277778
        k(   27) = (   0.1646186  -0.5705690   0.0000000), wk =   0.0277778
        k(   28) = (   0.1649598  -0.4755746   0.0000000), wk =   0.0277778
        k(   29) = (   0.1653009  -0.3805801   0.0000000), wk =   0.0277778
        k(   30) = (   0.1656421  -0.2855857   0.0000000), wk =   0.0277778
        k(   31) = (   0.1659833  -0.1905913   0.0000000), wk =   0.0277778
        k(   32) = (   0.2494866  -0.1433952   0.0000000), wk =   0.0277778
        k(   33) = (   0.2498278  -0.0484008   0.0000000), wk =   0.0277778
        k(   34) = (   0.2501689   0.0465936   0.0000000), wk =   0.0277778
        k(   35) = (   0.2505101   0.1415881   0.0000000), wk =   0.0277778
        k(   36) = (   0.2508513   0.2365825   0.0000000), wk =   0.0277778
        k(   37) = (   0.2511924   0.3315769   0.0000000), wk =   0.0277778
        k(   38) = (   0.2474397  -0.7133618   0.0000000), wk =   0.0277778
        k(   39) = (   0.2477808  -0.6183674   0.0000000), wk =   0.0277778
        k(   40) = (   0.2481220  -0.5233730   0.0000000), wk =   0.0277778
        k(   41) = (   0.2484631  -0.4283785   0.0000000), wk =   0.0277778
        k(   42) = (   0.2488043  -0.3333841   0.0000000), wk =   0.0277778
        k(   43) = (   0.2491455  -0.2383897   0.0000000), wk =   0.0277778
        k(   44) = (   0.3326488  -0.1911936   0.0000000), wk =   0.0277778
        k(   45) = (   0.3329900  -0.0961992   0.0000000), wk =   0.0277778
        k(   46) = (   0.3333312  -0.0012048   0.0000000), wk =   0.0277778
        k(   47) = (   0.3336723   0.0937897   0.0000000), wk =   0.0277778
        k(   48) = (   0.3340135   0.1887841   0.0000000), wk =   0.0277778
        k(   49) = (   0.3343546   0.2837785   0.0000000), wk =   0.0277778
        k(   50) = (   0.3306019  -0.7611603   0.0000000), wk =   0.0277778
        k(   51) = (   0.3309430  -0.6661658   0.0000000), wk =   0.0277778
        k(   52) = (   0.3312842  -0.5711714   0.0000000), wk =   0.0277778
        k(   53) = (   0.3316253  -0.4761769   0.0000000), wk =   0.0277778
        k(   54) = (   0.3319665  -0.3811825   0.0000000), wk =   0.0277778
        k(   55) = (   0.3323077  -0.2861881   0.0000000), wk =   0.0277778
        k(   56) = (   0.4158110  -0.2389921   0.0000000), wk =   0.0277778
        k(   57) = (   0.4161522  -0.1439976   0.0000000), wk =   0.0277778
        k(   58) = (   0.4164934  -0.0490032   0.0000000), wk =   0.0277778
        k(   59) = (   0.4168345   0.0459913   0.0000000), wk =   0.0277778
        k(   60) = (   0.4171757   0.1409857   0.0000000), wk =   0.0277778
        k(   61) = (   0.4175169   0.2359801   0.0000000), wk =   0.0277778
        k(   62) = (   0.4137641  -0.8089587   0.0000000), wk =   0.0277778
        k(   63) = (   0.4141052  -0.7139642   0.0000000), wk =   0.0277778
        k(   64) = (   0.4144464  -0.6189698   0.0000000), wk =   0.0277778
        k(   65) = (   0.4147876  -0.5239754   0.0000000), wk =   0.0277778
        k(   66) = (   0.4151287  -0.4289809   0.0000000), wk =   0.0277778
        k(   67) = (   0.4154699  -0.3339865   0.0000000), wk =   0.0277778
        k(   68) = (  -0.4989732   0.2867905   0.0000000), wk =   0.0138889
        k(   69) = (  -0.4986321   0.3817849   0.0000000), wk =   0.0277778
        k(   70) = (  -0.4982909   0.4767793   0.0000000), wk =   0.0277778
        k(   71) = (  -0.4979498   0.5717738   0.0000000), wk =   0.0277778
        k(   72) = (  -0.4976086   0.6667682   0.0000000), wk =   0.0277778
        k(   73) = (  -0.4972674   0.7617626   0.0000000), wk =   0.0277778
        k(   74) = (  -0.5010202  -0.2831762   0.0000000), wk =   0.0138889

     Dense  grid:   113933 G-vectors     FFT dimensions: (  40,  45, 160)

     Smooth grid:    40273 G-vectors     FFT dimensions: (  30,  30, 120)

     Estimated max dynamical RAM per process >      51.09 MB

     Estimated total dynamical RAM >     204.35 MB

     Initial potential from superposition of free atoms

     starting charge       7.9994, renormalised to       8.0000

     negative rho (up, down):  1.264E-05 0.000E+00


     %%%%%%%%%%%%%%%%%%%%%%%%%%%%%%%%%%%%%%%%%%%%%%%%%%%%%%%%%%%%%%%%%%%%%%%%
     %                                                                      %
     % You are using vdW-DF, which was implemented by the Thonhauser group. %
     % Please cite the following two papers that made this development      %
     % possible and the two reviews that describe the various versions:     %
     %                                                                      %
     %   T. Thonhauser et al., PRL 115, 136402 (2015).                      %
     %   T. Thonhauser et al., PRB 76, 125112 (2007).                       %
     %   K. Berland et al., Rep. Prog. Phys. 78, 066501 (2015).             %
     %   D.C. Langreth et al., J. Phys.: Condens. Matter 21, 084203 (2009). %
     %                                                                      %
     % If you are calculating stress with vdW-DF, please also cite:         %
     %                                                                      %
     %   R. Sabatini et al., J. Phys.: Condens. Matter 24, 424209 (2012).   %
     %                                                                      %
     %%%%%%%%%%%%%%%%%%%%%%%%%%%%%%%%%%%%%%%%%%%%%%%%%%%%%%%%%%%%%%%%%%%%%%%%

     %%%%%%%%%%%%%%%%%%%%%%%%%%%%%%%%%%%%%%%%%%%%%%%%%%%%%%%%%%%%%%%%%%%%%%%%
     %                                                                      %
     %  vdW-DF NEWS:                                                        %
     %                                                                      %
     %  * vdW-DF3 is now available. DOI: 10.1021/acs.jctc.0c00471           %
     %    use with input_dft = 'vdW-DF3-opt1' or 'vdW-DF3-opt2'             %
     %                                                                      %
     %  * Unscreened and range-separated hybrid vdW-DF-cx functionals       %
     %    DOI: 10.1063/1.4986522 and 10.1088/1361-648X/ac2ad2               %
     %    use with input_dft = 'vdW-DF-cx0'    and 'vdW-DF-ahcx'            %
     %  * Unscreened and range-separated hybrid vdW-DF2-b86r functionals    %
     %    DOI: 10.1063/1.4986522 and DOI: 10.1103/PhysRevX.12.041003        %
     %    use with input_dft = 'vdW-DF2-br0' and 'vdW-DF2-ahbr'             %
     %                                                                      %
     %%%%%%%%%%%%%%%%%%%%%%%%%%%%%%%%%%%%%%%%%%%%%%%%%%%%%%%%%%%%%%%%%%%%%%%%


     Starting wfcs are   10 randomized atomic wfcs

     total cpu time spent up to now is       25.7 secs

     per-process dynamical memory:   100.7 Mb

     Self-consistent Calculation

     iteration #  1     ecut=    60.00 Ry     beta= 0.70
     Davidson diagonalization with overlap
     ethr =  1.00E-02,  avg # of iterations =  3.9

     negative rho (up, down):  1.289E-05 0.000E+00

     total cpu time spent up to now is       28.7 secs

     total energy              =     -15.04535415 Ry
     estimated scf accuracy    <       0.32935591 Ry

     iteration #  2     ecut=    60.00 Ry     beta= 0.70
     Davidson diagonalization with overlap
     ethr =  4.12E-03,  avg # of iterations =  3.8

     negative rho (up, down):  2.183E-05 0.000E+00

     total cpu time spent up to now is       31.2 secs

     total energy              =     -15.10075168 Ry
     estimated scf accuracy    <       0.01905103 Ry

     iteration #  3     ecut=    60.00 Ry     beta= 0.70
     Davidson diagonalization with overlap
     ethr =  2.38E-04,  avg # of iterations =  5.0

     negative rho (up, down):  3.097E-05 0.000E+00

     total cpu time spent up to now is       34.0 secs

     total energy              =     -15.10411930 Ry
     estimated scf accuracy    <       0.00059052 Ry

     iteration #  4     ecut=    60.00 Ry     beta= 0.70
     Davidson diagonalization with overlap
     ethr =  7.38E-06,  avg # of iterations =  5.2

     negative rho (up, down):  3.286E-05 0.000E+00

     total cpu time spent up to now is       37.0 secs

     total energy              =     -15.10421236 Ry
     estimated scf accuracy    <       0.00000719 Ry

     iteration #  5     ecut=    60.00 Ry     beta= 0.70
     Davidson diagonalization with overlap
     ethr =  8.98E-08,  avg # of iterations =  3.2

     negative rho (up, down):  3.334E-05 0.000E+00

     total cpu time spent up to now is       39.5 secs

     total energy              =     -15.10421517 Ry
     estimated scf accuracy    <       0.00000042 Ry

     iteration #  6     ecut=    60.00 Ry     beta= 0.70
     Davidson diagonalization with overlap
     ethr =  5.27E-09,  avg # of iterations =  2.1

     negative rho (up, down):  3.347E-05 0.000E+00

     total cpu time spent up to now is       41.8 secs

     total energy              =     -15.10421525 Ry
     estimated scf accuracy    <       0.00000002 Ry

     iteration #  7     ecut=    60.00 Ry     beta= 0.70
     Davidson diagonalization with overlap
     ethr =  2.30E-10,  avg # of iterations =  2.6

     negative rho (up, down):  3.347E-05 0.000E+00

     total cpu time spent up to now is       44.3 secs

     End of self-consistent calculation

          k = 0.0000 0.0000 0.0000 (  5017 PWs)   bands (ev):

   -14.5320  -8.8547  -3.0995  -0.6460   0.5641   1.9362   2.9059   5.5914

          k = 0.0003 0.0950 0.0000 (  4979 PWs)   bands (ev):

   -14.4333  -8.7370  -3.4859  -0.8928   0.6868   2.0773   3.0338   5.7005

          k = 0.0007 0.1900 0.0000 (  4988 PWs)   bands (ev):

   -14.1423  -8.3892  -4.4736  -1.4593   1.0706   2.4823   3.4243   3.9682

          k = 0.0010 0.2850 0.0000 (  5020 PWs)   bands (ev):

   -13.6771  -7.8310  -5.7404  -2.0753   1.7182   1.9059   3.3007   4.0499

          k = 0.0014 0.3800 0.0000 (  5038 PWs)   bands (ev):

   -13.0840  -7.1139  -7.0188  -2.5819   0.1866   2.5850   4.2677   4.6372

          k = 0.0017 0.4750 0.0000 (  5038 PWs)   bands (ev):

   -12.4873  -8.0642  -6.3820  -2.9061  -1.1728   3.4612   4.9187   5.5265

          k =-0.0020-0.5700 0.0000 (  5036 PWs)   bands (ev):

   -12.1971  -8.5096  -6.0190  -3.0170  -1.7474   3.7904   5.6267   6.1147

          k = 0.0832-0.0478 0.0000 (  5007 PWs)   bands (ev):

   -14.4335  -8.7536  -3.3850  -1.0210   0.6997   2.0774   3.0476   5.7000

          k = 0.0835 0.0472 0.0000 (  5007 PWs)   bands (ev):

   -14.4335  -8.7542  -3.3683  -1.0453   0.7000   2.0771   3.0478   5.6279

          k = 0.0838 0.1422 0.0000 (  5003 PWs)   bands (ev):

   -14.2389  -8.5238  -4.0508  -1.4607   0.9533   2.3517   3.3083   4.8661

          k = 0.0842 0.2372 0.0000 (  5010 PWs)   bands (ev):

   -13.8607  -8.0744  -5.1502  -2.0951   1.4740   2.6296   3.2097   3.8338

          k = 0.0845 0.3322 0.0000 (  5029 PWs)   bands (ev):

   -13.3289  -7.4392  -6.3907  -2.7085   1.0340   2.2487   3.8468   4.5657

          k = 0.0849 0.4272 0.0000 (  5030 PWs)   bands (ev):

   -12.7196  -7.5433  -6.7049  -3.1594  -0.4956   3.2025   4.9558   5.1267

          k = 0.0811-0.6178 0.0000 (  5055 PWs)   bands (ev):

   -12.2359  -8.3189  -6.1128  -3.3923  -1.4967   3.9964   5.5631   6.2837

          k = 0.0815-0.5228 0.0000 (  5055 PWs)   bands (ev):

   -12.2356  -8.3219  -6.1103  -3.3887  -1.5023   4.0012   5.5539   6.2893

          k = 0.0818-0.4278 0.0000 (  5030 PWs)   bands (ev):

   -12.7193  -7.5525  -6.7001  -3.1474  -0.5097   3.2065   4.9594   5.1318

          k = 0.0821-0.3328 0.0000 (  5029 PWs)   bands (ev):

   -13.3288  -7.4348  -6.4079  -2.6852   1.0141   2.2504   3.8485   4.5709

          k = 0.0825-0.2378 0.0000 (  5010 PWs)   bands (ev):

   -13.8608  -8.0711  -5.1771  -2.0577   1.4745   2.6168   3.1981   3.8356

          k = 0.0828-0.1428 0.0000 (  5003 PWs)   bands (ev):

   -14.2389  -8.5219  -4.0827  -1.4150   0.9530   2.3524   3.3086   4.8364

          k = 0.1663-0.0956 0.0000 (  5007 PWs)   bands (ev):

   -14.1444  -8.4604  -4.1559  -1.8662   1.1132   2.4893   3.4758   5.2914

          k = 0.1667-0.0006 0.0000 (  4991 PWs)   bands (ev):

   -14.2398  -8.5731  -3.7763  -1.8077   0.9850   2.3574   3.3441   5.9812

          k = 0.1670 0.0944 0.0000 (  5007 PWs)   bands (ev):

   -14.1443  -8.4631  -4.1058  -1.9347   1.1138   2.4882   3.4761   5.3447

          k = 0.1673 0.1894 0.0000 (  5031 PWs)   bands (ev):

   -13.8636  -8.1368  -4.9161  -2.3951   1.5041   2.7935   3.7334   3.8737

          k = 0.1677 0.2844 0.0000 (  5037 PWs)   bands (ev):

   -13.4185  -7.6180  -5.9181  -3.1127   1.8006   2.1602   3.7404   4.5406

          k = 0.1680 0.3794 0.0000 (  5046 PWs)   bands (ev):

   -12.8598  -6.9652  -6.9556  -3.7731   0.3160   3.0556   4.6619   5.4123

          k = 0.1643-0.6656 0.0000 (  5071 PWs)   bands (ev):

   -12.3139  -7.8316  -6.3249  -4.1982  -0.8542   4.0797   5.7871   6.1254

          k = 0.1646-0.5706 0.0000 (  5067 PWs)   bands (ev):

   -12.0576  -8.2098  -6.0210  -4.3370  -1.3427   4.6965   6.5086   6.8297

          k = 0.1650-0.4756 0.0000 (  5071 PWs)   bands (ev):

   -12.3130  -7.8462  -6.3170  -4.1806  -0.8755   4.0858   5.7997   6.1208

          k = 0.1653-0.3806 0.0000 (  5048 PWs)   bands (ev):

   -12.8592  -6.9862  -6.9557  -3.7346   0.2803   3.0586   4.6682   5.4202

          k = 0.1656-0.2856 0.0000 (  5037 PWs)   bands (ev):

   -13.4184  -7.6101  -5.9656  -3.0504   1.7568   2.1613   3.7409   4.5448

          k = 0.1660-0.1906 0.0000 (  5031 PWs)   bands (ev):

   -13.8637  -8.1314  -4.9750  -2.3152   1.5039   2.7890   3.6857   3.8750

          k = 0.2495-0.1434 0.0000 (  5031 PWs)   bands (ev):

   -13.6873  -8.0098  -5.2391  -2.7302   1.8064   2.9941   3.9553   4.1875

          k = 0.2498-0.0484 0.0000 (  5026 PWs)   bands (ev):

   -13.8664  -8.2137  -4.6020  -2.7833   1.5445   2.8963   3.9236   5.1116

          k = 0.2502 0.0466 0.0000 (  5026 PWs)   bands (ev):

   -13.8664  -8.2159  -4.5623  -2.8332   1.5450   2.8951   3.9240   5.1605

          k = 0.2505 0.1416 0.0000 (  5031 PWs)   bands (ev):

   -13.6873  -8.0163  -5.1692  -2.8240   1.8074   3.0023   4.0176   4.1869

          k = 0.2509 0.2366 0.0000 (  5038 PWs)   bands (ev):

   -13.3442  -7.6324  -5.9343  -3.2917   2.2126   2.3296   3.9618   4.7048

          k = 0.2512 0.3316 0.0000 (  5053 PWs)   bands (ev):

   -12.8757  -7.1090  -6.6715  -4.1089   0.9902   3.1057   4.6894   5.5079

          k = 0.2474-0.7134 0.0000 (  5056 PWs)   bands (ev):

   -12.3677  -7.3227  -6.5438  -4.8639  -0.0713   4.0816   5.5439   6.4648

          k = 0.2478-0.6184 0.0000 (  5062 PWs)   bands (ev):

   -11.9979  -7.7659  -6.1333  -5.2808  -0.7406   5.0228   5.9054   6.9804

          k = 0.2481-0.5234 0.0000 (  5062 PWs)   bands (ev):

   -11.9969  -7.7819  -6.1269  -5.2631  -0.7583   5.0279   5.9226   6.9523

          k = 0.2485-0.4284 0.0000 (  5056 PWs)   bands (ev):

   -12.3661  -7.3666  -6.5302  -4.8128  -0.1171   4.0854   5.5663   6.4707

          k = 0.2488-0.3334 0.0000 (  5053 PWs)   bands (ev):

   -12.8747  -7.0953  -6.7337  -4.0317   0.9286   3.1073   4.6958   5.5172

          k = 0.2491-0.2384 0.0000 (  5038 PWs)   bands (ev):

   -13.3439  -7.6218  -6.0050  -3.1980   2.1508   2.3295   3.9547   4.7120

          k = 0.3326-0.1912 0.0000 (  5036 PWs)   bands (ev):

   -13.1178  -7.4776  -6.4092  -3.3832   2.1494   2.7644   4.3952   4.7855

          k = 0.3330-0.0962 0.0000 (  5043 PWs)   bands (ev):

   -13.3498  -7.7251  -5.7063  -3.5701   2.3748   3.1494   4.0448   4.7822

          k = 0.3333-0.0012 0.0000 (  5043 PWs)   bands (ev):

   -13.4305  -7.8135  -5.2368  -3.9210   2.2430   3.5427   4.1843   4.6483

          k = 0.3337 0.0938 0.0000 (  5043 PWs)   bands (ev):

   -13.3501  -7.7315  -5.6429  -3.6499   2.3759   3.1855   4.0771   4.7825

          k = 0.3340 0.1888 0.0000 (  5036 PWs)   bands (ev):

   -13.1185  -7.4899  -6.3388  -3.4790   2.2209   2.7657   4.4064   4.7348

          k = 0.3344 0.2838 0.0000 (  5056 PWs)   bands (ev):

   -12.7692  -7.1251  -6.9214  -3.9348   1.2864   3.3986   5.0455   5.1054

          k = 0.3306-0.7612 0.0000 (  5051 PWs)   bands (ev):

   -12.3704  -7.2751  -6.7087  -4.8200   0.5439   4.2423   5.7055   6.2788

          k = 0.3309-0.6662 0.0000 (  5056 PWs)   bands (ev):

   -12.0368  -7.3560  -6.3570  -5.7038   0.0469   5.1250   5.4813   7.1312

          k = 0.3313-0.5712 0.0000 (  5049 PWs)   bands (ev):

   -11.9028  -7.3177  -6.2108  -6.1022  -0.1475   5.2380   5.5460   7.5020

          k = 0.3316-0.4762 0.0000 (  5056 PWs)   bands (ev):

   -12.0345  -7.4135  -6.3443  -5.6412   0.0017   5.1298   5.5165   7.1084

          k = 0.3320-0.3812 0.0000 (  5051 PWs)   bands (ev):

   -12.3679  -7.3440  -6.6905  -4.7381   0.4714   4.2450   5.7338   6.3559

          k = 0.3323-0.2862 0.0000 (  5056 PWs)   bands (ev):

   -12.7676  -7.1082  -6.9919  -3.8423   1.2065   3.3990   5.0462   5.1676

          k = 0.4158-0.2390 0.0000 (  5035 PWs)   bands (ev):

   -12.5704  -7.3767  -7.0089  -3.7760   1.1615   3.9295   4.5909   5.6248

          k = 0.4162-0.1440 0.0000 (  5059 PWs)   bands (ev):

   -12.7765  -7.2056  -6.8174  -4.0574   1.8914   3.4474   4.9601   5.2152

          k = 0.4165-0.0490 0.0000 (  5060 PWs)   bands (ev):

   -12.8948  -7.3201  -6.1221  -4.7323   2.7261   3.1926   4.3864   5.6361

          k = 0.4168 0.0460 0.0000 (  5060 PWs)   bands (ev):

   -12.8951  -7.3245  -6.0718  -4.7893   2.7670   3.1933   4.3808   5.6367

          k = 0.4172 0.1410 0.0000 (  5059 PWs)   bands (ev):

   -12.7777  -7.2181  -6.7515  -4.1422   1.9655   3.4493   4.9655   5.1655

          k = 0.4175 0.2360 0.0000 (  5035 PWs)   bands (ev):

   -12.5728  -7.3099  -7.0279  -3.8673   1.2480   3.9310   4.5441   5.6291

          k = 0.4138-0.8090 0.0000 (  5051 PWs)   bands (ev):

   -12.3410  -7.5665  -6.8045  -4.2828   0.8174   4.5559   5.0218   6.3302

          k = 0.4141-0.7140 0.0000 (  5056 PWs)   bands (ev):

   -12.1553  -7.4392  -6.6102  -5.1686   0.6882   5.0929   5.7274   6.2611

          k = 0.4144-0.6190 0.0000 (  5053 PWs)   bands (ev):

   -12.0595  -6.9248  -6.4965  -6.1453   0.7250   4.9275   5.2018   7.2629

          k = 0.4148-0.5240 0.0000 (  5053 PWs)   bands (ev):

   -12.0582  -6.9943  -6.4899  -6.0724   0.6944   4.9489   5.2028   7.2547

          k = 0.4151-0.4290 0.0000 (  5056 PWs)   bands (ev):

   -12.1521  -7.5083  -6.5930  -5.0885   0.6154   5.0971   5.7737   6.3161

          k = 0.4155-0.3340 0.0000 (  5051 PWs)   bands (ev):

   -12.3377  -7.6343  -6.7832  -4.1954   0.7295   4.5622   5.0676   6.3454

          k =-0.4990 0.2868 0.0000 (  5038 PWs)   bands (ev):

   -12.3195  -7.7770  -6.8128  -3.9066   0.7799   4.5052   4.8324   6.2499

          k =-0.4986 0.3818 0.0000 (  5049 PWs)   bands (ev):

   -12.3430  -7.5771  -6.8261  -4.2639   0.9647   4.6119   5.0534   6.1785

          k =-0.4983 0.4768 0.0000 (  5054 PWs)   bands (ev):

   -12.3885  -7.0250  -6.8533  -5.0919   1.4270   4.3223   5.1778   6.3951

          k =-0.4979 0.5718 0.0000 (  5075 PWs)   bands (ev):

   -12.4108  -6.8701  -6.3859  -5.8565   1.7640   4.2123   4.6294   6.6834

          k =-0.4976 0.6668 0.0000 (  5054 PWs)   bands (ev):

   -12.3901  -6.9593  -6.8642  -5.1673   1.4889   4.3233   5.1532   6.3421

          k =-0.4973 0.7618 0.0000 (  5049 PWs)   bands (ev):

   -12.3461  -7.5111  -6.8453  -4.3488   1.0503   4.6129   5.0047   6.1716

          k =-0.5010-0.2832 0.0000 (  5038 PWs)   bands (ev):

   -12.3232  -7.7111  -6.8352  -3.9958   0.8716   4.4595   4.8344   6.2589

     the Fermi energy is    -1.2484 ev

!    total energy              =     -15.10421526 Ry
     estimated scf accuracy    <          6.1E-10 Ry
     smearing contrib. (-TS)   =      -0.00015605 Ry
     internal energy E=F+TS    =     -15.10405921 Ry

     The total energy is F=E-TS. E is the sum of the following terms:
     one-electron contribution =     -65.62277491 Ry
     hartree contribution      =      34.37213533 Ry
     xc contribution           =      -7.33892647 Ry
     ewald contribution        =      23.48550684 Ry

     convergence has been achieved in   7 iterations

     negative rho (up, down):  3.347E-05 0.000E+00

     Forces acting on atoms (cartesian axes, Ry/au):

     atom    1 type  1   force =     0.00781775    0.00397224    0.00000000
     atom    2 type  1   force =    -0.00822957   -0.00393921    0.00000000
     atom    3 type  2   force =     0.00020591   -0.00001652    0.00108004
     atom    4 type  2   force =     0.00020591   -0.00001652   -0.00108004
     The non-local contrib.  to forces
     atom    1 type  1   force =     0.00964146   -0.35214070    0.00000000
     atom    2 type  1   force =    -0.01154896    0.35220446    0.00000000
     atom    3 type  2   force =     0.00068082    0.00000614   -0.11397369
     atom    4 type  2   force =     0.00068082    0.00000614    0.11397369
     The ionic contribution  to forces
     atom    1 type  1   force =     0.02684861    0.69504650    0.00000000
     atom    2 type  1   force =    -0.01813573   -0.69491576    0.00000000
     atom    3 type  2   force =    -0.00435644   -0.00006537    2.57656314
     atom    4 type  2   force =    -0.00435644   -0.00006537   -2.57656314
     The local contribution  to forces
     atom    1 type  1   force =    -0.02829624   -0.34660039    0.00000000
     atom    2 type  1   force =     0.02107543    0.34644188    0.00000000
     atom    3 type  2   force =     0.00388154    0.00004261   -2.46151201
     atom    4 type  2   force =     0.00388154    0.00004261    2.46151201
     The core correction contribution to forces
     atom    1 type  1   force =    -0.00037619    0.00767693   -0.00000000
     atom    2 type  1   force =     0.00037990   -0.00768003   -0.00000000
     atom    3 type  2   force =     0.00000000    0.00000000    0.00000000
     atom    4 type  2   force =     0.00000000    0.00000000    0.00000000
     The Hubbard contrib.    to forces
     atom    1 type  1   force =     0.00000000    0.00000000    0.00000000
     atom    2 type  1   force =     0.00000000    0.00000000    0.00000000
     atom    3 type  2   force =     0.00000000    0.00000000    0.00000000
     atom    4 type  2   force =     0.00000000    0.00000000    0.00000000
     The SCF correction term to forces
     atom    1 type  1   force =     0.00000013   -0.00001017   -0.00000000
     atom    2 type  1   force =    -0.00000018    0.00001017   -0.00000000
     atom    3 type  2   force =     0.00000001    0.00000005    0.00000260
     atom    4 type  2   force =     0.00000001    0.00000005   -0.00000260

     Total force =     0.012750     Total SCF correction =     0.000015

     Writing all to output data dir tmpdir/pwscf.save/
 
     init_run     :     25.49s CPU     25.64s WALL (       1 calls)
     electrons    :     15.40s CPU     18.57s WALL (       1 calls)
     forces       :      0.50s CPU      0.54s WALL (       1 calls)

     Called by init_run:
     wfcinit      :      0.69s CPU      0.75s WALL (       1 calls)
     potinit      :     24.52s CPU     24.57s WALL (       1 calls)
     hinit0       :      0.24s CPU      0.26s WALL (       1 calls)

     Called by electrons:
     c_bands      :     11.73s CPU     14.03s WALL (       7 calls)
     sum_band     :      2.04s CPU      2.48s WALL (       7 calls)
     v_of_rho     :     25.81s CPU     26.21s WALL (       8 calls)
     newd         :      0.16s CPU      0.24s WALL (       8 calls)
     mix_rho      :      0.02s CPU      0.04s WALL (       7 calls)
     vdW_kernel   :     24.19s CPU     24.19s WALL (       1 calls)

     Called by c_bands:
     init_us_2    :      0.21s CPU      0.25s WALL (    1184 calls)
     init_us_2:cp :      0.21s CPU      0.25s WALL (    1184 calls)
     cegterg      :     11.29s CPU     13.51s WALL (     518 calls)

     Called by *egterg:
     cdiaghg      :      0.34s CPU      0.41s WALL (    2417 calls)
     h_psi        :     10.06s CPU     11.96s WALL (    2491 calls)
     s_psi        :      0.17s CPU      0.20s WALL (    2491 calls)
     g_psi        :      0.04s CPU      0.05s WALL (    1899 calls)

     Called by h_psi:
     h_psi:calbec :      0.39s CPU      0.47s WALL (    2491 calls)
     vloc_psi     :      9.37s CPU     11.13s WALL (    2491 calls)
     add_vuspsi   :      0.26s CPU      0.31s WALL (    2491 calls)

     General routines
     calbec       :      0.53s CPU      0.63s WALL (    3305 calls)
     fft          :      0.85s CPU      1.14s WALL (     563 calls)
     ffts         :      0.01s CPU      0.01s WALL (      15 calls)
     fftw         :      9.32s CPU     11.13s WALL (   30002 calls)
     interpolate  :      0.02s CPU      0.03s WALL (       8 calls)
 
     Parallel routines
 
     PWSCF        :     41.51s CPU     44.95s WALL

 
   This run was terminated on:  10:24:24   1Dec2023            

=------------------------------------------------------------------------------=
   JOB DONE.
=------------------------------------------------------------------------------=
