[0] MPI startup(): I_MPI_TCP_NETMASK variable has been removed from the product, its value is ignored


     Program PWSCF v.7.2 starts on 12Mar2024 at 18:24:29 

     This program is part of the open-source Quantum ESPRESSO suite
     for quantum simulation of materials; please cite
         "P. Giannozzi et al., J. Phys.:Condens. Matter 21 395502 (2009);
         "P. Giannozzi et al., J. Phys.:Condens. Matter 29 465901 (2017);
         "P. Giannozzi et al., J. Chem. Phys. 152 154105 (2020);
          URL http://www.quantum-espresso.org", 
     in publications or presentations arising from this work. More details at
     http://www.quantum-espresso.org/quote

     Parallel version (MPI), running on    16 processors

     MPI processes distributed on     1 nodes
     37822 MiB available memory on the printing compute node when the environment starts
 
     Reading input from espresso.pwi
Warning: card &CELL ignored
Warning: card / ignored

     Current dimensions of program PWSCF are:
     Max number of different atomic species (ntypx) = 10
     Max number of k-points (npk) =  40000
     Max angular momentum in pseudopotentials (lmaxx) =  4
     Presently no symmetry can be used with electric field


     IMPORTANT: XC functional enforced from input :
     Exchange-correlation= VDW-DF2-B86R
                           (   1   4  26   0   2   0   0)
     Any further DFT definition will be discarded
     Please, verify this is what you really want

 
     R & G space division:  proc/nbgrp/npool/nimage =      16
     Subspace diagonalization in iterative solution of the eigenvalue problem:
     a serial algorithm will be used

 
     Parallelization info
     --------------------
     sticks:   dense  smooth     PW     G-vecs:    dense   smooth      PW
     Min          67      34     10                 7115     2515     444
     Max          68      36     11                 7126     2519     463
     Sum        1085     551    167               113933    40273    7201
 
     Using Slab Decomposition
 


     bravais-lattice index     =            0
     lattice parameter (alat)  =       5.6973  a.u.
     unit-cell volume          =     642.1518 (a.u.)^3
     number of atoms/cell      =            4
     number of atomic types    =            2
     number of electrons       =         8.00
     number of Kohn-Sham states=            8
     kinetic-energy cutoff     =      60.0000  Ry
     charge density cutoff     =     480.0000  Ry
     scf convergence threshold =      1.0E-06
     mixing beta               =       0.7000
     number of iterations used =            8  plain     mixing
     Exchange-correlation= VDW-DF2-B86R
                           (   1   4  26   0   2   0   0)

     celldm(1)=   5.697334  celldm(2)=   0.000000  celldm(3)=   0.000000
     celldm(4)=   0.000000  celldm(5)=   0.000000  celldm(6)=   0.000000

     crystal axes: (cart. coord. in units of alat)
               a(1) = (   0.999994  -0.003591   0.000000 )  
               a(2) = (   0.503167   0.875437   0.000000 )  
               a(3) = (   0.000000   0.000000   3.958265 )  

     reciprocal axes: (cart. coord. in units 2 pi/alat)
               b(1) = (  0.997946 -0.573581  0.000000 )  
               b(2) = (  0.004094  1.139933  0.000000 )  
               b(3) = (  0.000000  0.000000  0.252636 )  


     PseudoPot. # 1 for B  read from file:
     /home/krojas/QE/pseudo/b_pbe_v1.4.uspp.F.UPF
     MD5 check sum: cc6de2960df11db49a60e589f9ebb39b
     Pseudo is Ultrasoft + core correction, Zval =  3.0
     Generated by new atomic code, or converted to UPF format
     Using radial grid of  781 points,  4 beta functions with: 
                l(1) =   0
                l(2) =   0
                l(3) =   1
                l(4) =   1
     Q(r) pseudized with  8 coefficients,  rinner =    1.100   1.100   1.100


     PseudoPot. # 2 for H  read from file:
     /home/krojas/QE/pseudo/h_pbe_v1.4.uspp.F.UPF
     MD5 check sum: 761ae9a214b05c3daf00ab9f6b793d6f
     Pseudo is Ultrasoft, Zval =  1.0
     Generated by new atomic code, or converted to UPF format
     Using radial grid of  615 points,  2 beta functions with: 
                l(1) =   0
                l(2) =   0
     Q(r) pseudized with  8 coefficients,  rinner =    0.700

     atomic species   valence    mass     pseudopotential
        B              3.00    10.81000     B ( 1.00)
        H              1.00     1.00800     H ( 1.00)

     No symmetry found



   Cartesian axes

     site n.     atom                  positions (alat units)
         1           B   tau(   1) = (   0.0000000   0.0000000   1.9791325  )
         2           B   tau(   2) = (   0.5009657   0.2715580   1.9791325  )
         3           H   tau(   3) = (   0.5020846   0.5735104   2.2998349  )
         4           H   tau(   4) = (   0.5020846   0.5735104   1.6584302  )

     number of k points=    74  Gaussian smearing, width (Ry)=  0.0100
                       cart. coord. in units 2pi/alat
        k(    1) = (   0.0000000   0.0000000   0.0000000), wk =   0.0138889
        k(    2) = (   0.0003412   0.0949944   0.0000000), wk =   0.0277778
        k(    3) = (   0.0006823   0.1899889   0.0000000), wk =   0.0277778
        k(    4) = (   0.0010235   0.2849833   0.0000000), wk =   0.0277778
        k(    5) = (   0.0013646   0.3799777   0.0000000), wk =   0.0277778
        k(    6) = (   0.0017058   0.4749722   0.0000000), wk =   0.0277778
        k(    7) = (  -0.0020470  -0.5699666   0.0000000), wk =   0.0138889
        k(    8) = (   0.0831622  -0.0477984   0.0000000), wk =   0.0277778
        k(    9) = (   0.0835034   0.0471960   0.0000000), wk =   0.0277778
        k(   10) = (   0.0838445   0.1421905   0.0000000), wk =   0.0277778
        k(   11) = (   0.0841857   0.2371849   0.0000000), wk =   0.0277778
        k(   12) = (   0.0845269   0.3321793   0.0000000), wk =   0.0277778
        k(   13) = (   0.0848680   0.4271738   0.0000000), wk =   0.0277778
        k(   14) = (   0.0811152  -0.6177650   0.0000000), wk =   0.0277778
        k(   15) = (   0.0814564  -0.5227706   0.0000000), wk =   0.0277778
        k(   16) = (   0.0817976  -0.4277762   0.0000000), wk =   0.0277778
        k(   17) = (   0.0821387  -0.3327817   0.0000000), wk =   0.0277778
        k(   18) = (   0.0824799  -0.2377873   0.0000000), wk =   0.0277778
        k(   19) = (   0.0828210  -0.1427928   0.0000000), wk =   0.0277778
        k(   20) = (   0.1663244  -0.0955968   0.0000000), wk =   0.0277778
        k(   21) = (   0.1666656  -0.0006024   0.0000000), wk =   0.0277778
        k(   22) = (   0.1670067   0.0943921   0.0000000), wk =   0.0277778
        k(   23) = (   0.1673479   0.1893865   0.0000000), wk =   0.0277778
        k(   24) = (   0.1676891   0.2843809   0.0000000), wk =   0.0277778
        k(   25) = (   0.1680302   0.3793754   0.0000000), wk =   0.0277778
        k(   26) = (   0.1642774  -0.6655634   0.0000000), wk =   0.0277778
        k(   27) = (   0.1646186  -0.5705690   0.0000000), wk =   0.0277778
        k(   28) = (   0.1649598  -0.4755746   0.0000000), wk =   0.0277778
        k(   29) = (   0.1653009  -0.3805801   0.0000000), wk =   0.0277778
        k(   30) = (   0.1656421  -0.2855857   0.0000000), wk =   0.0277778
        k(   31) = (   0.1659833  -0.1905913   0.0000000), wk =   0.0277778
        k(   32) = (   0.2494866  -0.1433952   0.0000000), wk =   0.0277778
        k(   33) = (   0.2498278  -0.0484008   0.0000000), wk =   0.0277778
        k(   34) = (   0.2501689   0.0465936   0.0000000), wk =   0.0277778
        k(   35) = (   0.2505101   0.1415881   0.0000000), wk =   0.0277778
        k(   36) = (   0.2508513   0.2365825   0.0000000), wk =   0.0277778
        k(   37) = (   0.2511924   0.3315769   0.0000000), wk =   0.0277778
        k(   38) = (   0.2474397  -0.7133618   0.0000000), wk =   0.0277778
        k(   39) = (   0.2477808  -0.6183674   0.0000000), wk =   0.0277778
        k(   40) = (   0.2481220  -0.5233730   0.0000000), wk =   0.0277778
        k(   41) = (   0.2484631  -0.4283785   0.0000000), wk =   0.0277778
        k(   42) = (   0.2488043  -0.3333841   0.0000000), wk =   0.0277778
        k(   43) = (   0.2491455  -0.2383897   0.0000000), wk =   0.0277778
        k(   44) = (   0.3326488  -0.1911936   0.0000000), wk =   0.0277778
        k(   45) = (   0.3329900  -0.0961992   0.0000000), wk =   0.0277778
        k(   46) = (   0.3333312  -0.0012048   0.0000000), wk =   0.0277778
        k(   47) = (   0.3336723   0.0937897   0.0000000), wk =   0.0277778
        k(   48) = (   0.3340135   0.1887841   0.0000000), wk =   0.0277778
        k(   49) = (   0.3343546   0.2837785   0.0000000), wk =   0.0277778
        k(   50) = (   0.3306019  -0.7611603   0.0000000), wk =   0.0277778
        k(   51) = (   0.3309430  -0.6661658   0.0000000), wk =   0.0277778
        k(   52) = (   0.3312842  -0.5711714   0.0000000), wk =   0.0277778
        k(   53) = (   0.3316253  -0.4761769   0.0000000), wk =   0.0277778
        k(   54) = (   0.3319665  -0.3811825   0.0000000), wk =   0.0277778
        k(   55) = (   0.3323077  -0.2861881   0.0000000), wk =   0.0277778
        k(   56) = (   0.4158110  -0.2389921   0.0000000), wk =   0.0277778
        k(   57) = (   0.4161522  -0.1439976   0.0000000), wk =   0.0277778
        k(   58) = (   0.4164934  -0.0490032   0.0000000), wk =   0.0277778
        k(   59) = (   0.4168345   0.0459913   0.0000000), wk =   0.0277778
        k(   60) = (   0.4171757   0.1409857   0.0000000), wk =   0.0277778
        k(   61) = (   0.4175169   0.2359801   0.0000000), wk =   0.0277778
        k(   62) = (   0.4137641  -0.8089587   0.0000000), wk =   0.0277778
        k(   63) = (   0.4141052  -0.7139642   0.0000000), wk =   0.0277778
        k(   64) = (   0.4144464  -0.6189698   0.0000000), wk =   0.0277778
        k(   65) = (   0.4147876  -0.5239754   0.0000000), wk =   0.0277778
        k(   66) = (   0.4151287  -0.4289809   0.0000000), wk =   0.0277778
        k(   67) = (   0.4154699  -0.3339865   0.0000000), wk =   0.0277778
        k(   68) = (  -0.4989732   0.2867905   0.0000000), wk =   0.0138889
        k(   69) = (  -0.4986321   0.3817849   0.0000000), wk =   0.0277778
        k(   70) = (  -0.4982909   0.4767793   0.0000000), wk =   0.0277778
        k(   71) = (  -0.4979498   0.5717738   0.0000000), wk =   0.0277778
        k(   72) = (  -0.4976086   0.6667682   0.0000000), wk =   0.0277778
        k(   73) = (  -0.4972674   0.7617626   0.0000000), wk =   0.0277778
        k(   74) = (  -0.5010202  -0.2831762   0.0000000), wk =   0.0138889

     Dense  grid:   113933 G-vectors     FFT dimensions: (  40,  45, 160)

     Smooth grid:    40273 G-vectors     FFT dimensions: (  30,  30, 120)

     Estimated max dynamical RAM per process >      13.53 MB

     Estimated total dynamical RAM >     216.40 MB

     Initial potential from superposition of free atoms

     starting charge       7.9994, renormalised to       8.0000

     negative rho (up, down):  1.264E-05 0.000E+00


     %%%%%%%%%%%%%%%%%%%%%%%%%%%%%%%%%%%%%%%%%%%%%%%%%%%%%%%%%%%%%%%%%%%%%%%%
     %                                                                      %
     % You are using vdW-DF, which was implemented by the Thonhauser group. %
     % Please cite the following two papers that made this development      %
     % possible and the two reviews that describe the various versions:     %
     %                                                                      %
     %   T. Thonhauser et al., PRL 115, 136402 (2015).                      %
     %   T. Thonhauser et al., PRB 76, 125112 (2007).                       %
     %   K. Berland et al., Rep. Prog. Phys. 78, 066501 (2015).             %
     %   D.C. Langreth et al., J. Phys.: Condens. Matter 21, 084203 (2009). %
     %                                                                      %
     % If you are calculating stress with vdW-DF, please also cite:         %
     %                                                                      %
     %   R. Sabatini et al., J. Phys.: Condens. Matter 24, 424209 (2012).   %
     %                                                                      %
     %%%%%%%%%%%%%%%%%%%%%%%%%%%%%%%%%%%%%%%%%%%%%%%%%%%%%%%%%%%%%%%%%%%%%%%%

     %%%%%%%%%%%%%%%%%%%%%%%%%%%%%%%%%%%%%%%%%%%%%%%%%%%%%%%%%%%%%%%%%%%%%%%%
     %                                                                      %
     %  vdW-DF NEWS:                                                        %
     %                                                                      %
     %  * vdW-DF3 is now available. DOI: 10.1021/acs.jctc.0c00471           %
     %    use with input_dft = 'vdW-DF3-opt1' or 'vdW-DF3-opt2'             %
     %                                                                      %
     %  * Unscreened and range-separated hybrid vdW-DF-cx functionals       %
     %    DOI: 10.1063/1.4986522 and 10.1088/1361-648X/ac2ad2               %
     %    use with input_dft = 'vdW-DF-cx0'    and 'vdW-DF-ahcx'            %
     %  * Unscreened and range-separated hybrid vdW-DF2-b86r functionals    %
     %    DOI: 10.1063/1.4986522 and DOI: 10.1103/PhysRevX.12.041003        %
     %    use with input_dft = 'vdW-DF2-br0' and 'vdW-DF2-ahbr'             %
     %                                                                      %
     %%%%%%%%%%%%%%%%%%%%%%%%%%%%%%%%%%%%%%%%%%%%%%%%%%%%%%%%%%%%%%%%%%%%%%%%


 
     Adding external electric field

     Computed dipole along edir(3) : 
        Dipole               -0.0000 Ry au,         -0.0000 Debye
        Dipole field         -0.0000 Ry au, 
 
        Potential amp.        0.0000 Ry
        Total length         22.5493 bohr
 
     Starting wfcs are   10 randomized atomic wfcs

     total cpu time spent up to now is       14.5 secs

     Self-consistent Calculation

     iteration #  1     ecut=    60.00 Ry     beta= 0.70
     Davidson diagonalization with overlap
     ethr =  1.00E-02,  avg # of iterations =  3.8

     negative rho (up, down):  1.269E-05 0.000E+00
 
     Adding external electric field

     Computed dipole along edir(3) : 
        Dipole               -0.0001 Ry au,         -0.0003 Debye
        Dipole field         -0.0000 Ry au, 
 
        Potential amp.        0.0001 Ry
        Total length         22.5493 bohr
 

     total cpu time spent up to now is       15.4 secs

     total energy              =     -15.04551143 Ry
     estimated scf accuracy    <       0.32926217 Ry

     iteration #  2     ecut=    60.00 Ry     beta= 0.70
     Davidson diagonalization with overlap
     ethr =  4.12E-03,  avg # of iterations =  3.8

     negative rho (up, down):  2.182E-05 0.000E+00
 
     Adding external electric field

     Computed dipole along edir(3) : 
        Dipole                0.0001 Ry au,          0.0001 Debye
        Dipole field          0.0000 Ry au, 
 
        Potential amp.       -0.0000 Ry
        Total length         22.5493 bohr
 

     total cpu time spent up to now is       16.1 secs

     total energy              =     -15.10083818 Ry
     estimated scf accuracy    <       0.01901367 Ry

     iteration #  3     ecut=    60.00 Ry     beta= 0.70
     Davidson diagonalization with overlap
     ethr =  2.38E-04,  avg # of iterations =  5.0

     negative rho (up, down):  3.101E-05 0.000E+00
 
     Adding external electric field

     Computed dipole along edir(3) : 
        Dipole               -0.0002 Ry au,         -0.0006 Debye
        Dipole field         -0.0000 Ry au, 
 
        Potential amp.        0.0002 Ry
        Total length         22.5493 bohr
 

     total cpu time spent up to now is       16.8 secs

     total energy              =     -15.10419702 Ry
     estimated scf accuracy    <       0.00059228 Ry

     iteration #  4     ecut=    60.00 Ry     beta= 0.70
     Davidson diagonalization with overlap
     ethr =  7.40E-06,  avg # of iterations =  5.7

     negative rho (up, down):  3.286E-05 0.000E+00
 
     Adding external electric field

     Computed dipole along edir(3) : 
        Dipole                0.0006 Ry au,          0.0015 Debye
        Dipole field          0.0000 Ry au, 
 
        Potential amp.       -0.0005 Ry
        Total length         22.5493 bohr
 

     total cpu time spent up to now is       17.6 secs

     total energy              =     -15.10428985 Ry
     estimated scf accuracy    <       0.00000736 Ry

     iteration #  5     ecut=    60.00 Ry     beta= 0.70
     Davidson diagonalization with overlap
     ethr =  9.20E-08,  avg # of iterations =  2.6

     negative rho (up, down):  3.347E-05 0.000E+00
 
     Adding external electric field

     Computed dipole along edir(3) : 
        Dipole               -0.0018 Ry au,         -0.0046 Debye
        Dipole field         -0.0000 Ry au, 
 
        Potential amp.        0.0016 Ry
        Total length         22.5493 bohr
 

     total cpu time spent up to now is       18.2 secs

     End of self-consistent calculation

          k = 0.0000 0.0000 0.0000 (  5017 PWs)   bands (ev):

   -14.5334  -8.8566  -3.0972  -0.6478   0.5611   1.9317   2.9037   5.5960

          k = 0.0003 0.0950 0.0000 (  4979 PWs)   bands (ev):

   -14.4348  -8.7389  -3.4840  -0.8943   0.6839   2.0727   3.0315   5.7044

          k = 0.0007 0.1900 0.0000 (  4988 PWs)   bands (ev):

   -14.1439  -8.3911  -4.4723  -1.4602   1.0678   2.4778   3.4220   3.9669

          k = 0.0010 0.2850 0.0000 (  5020 PWs)   bands (ev):

   -13.6788  -7.8331  -5.7395  -2.0757   1.7156   1.9047   3.2964   4.0477

          k = 0.0014 0.3800 0.0000 (  5038 PWs)   bands (ev):

   -13.0858  -7.1162  -7.0181  -2.5821   0.1858   2.5827   4.2633   4.6359

          k = 0.0017 0.4750 0.0000 (  5038 PWs)   bands (ev):

   -12.4895  -8.0632  -6.3845  -2.9062  -1.1732   3.4598   4.9178   5.5222

          k =-0.0020-0.5700 0.0000 (  5036 PWs)   bands (ev):

   -12.1995  -8.5084  -6.0219  -3.0171  -1.7476   3.7899   5.6253   6.1123

          k = 0.0832-0.0478 0.0000 (  5007 PWs)   bands (ev):

   -14.4350  -8.7558  -3.3746  -1.0346   0.6969   2.0727   3.0454   5.6651

          k = 0.0835 0.0472 0.0000 (  5007 PWs)   bands (ev):

   -14.4350  -8.7558  -3.3746  -1.0345   0.6969   2.0727   3.0455   5.6656

          k = 0.0838 0.1422 0.0000 (  5003 PWs)   bands (ev):

   -14.2404  -8.5248  -4.0654  -1.4386   0.9503   2.3476   3.3062   4.8498

          k = 0.0842 0.2372 0.0000 (  5010 PWs)   bands (ev):

   -13.8624  -8.0748  -5.1627  -2.0768   1.4715   2.6206   3.2008   3.8323

          k = 0.0845 0.3322 0.0000 (  5029 PWs)   bands (ev):

   -13.3306  -7.4392  -6.3985  -2.6971   1.0230   2.2470   3.8433   4.5661

          k = 0.0849 0.4272 0.0000 (  5030 PWs)   bands (ev):

   -12.7215  -7.5470  -6.7049  -3.1536  -0.5033   3.2023   4.9533   5.1282

          k = 0.0811-0.6178 0.0000 (  5055 PWs)   bands (ev):

   -12.2382  -8.3193  -6.1144  -3.3906  -1.4998   3.9976   5.5573   6.2830

          k = 0.0815-0.5228 0.0000 (  5055 PWs)   bands (ev):

   -12.2381  -8.3193  -6.1143  -3.3906  -1.4998   3.9976   5.5574   6.2825

          k = 0.0818-0.4278 0.0000 (  5030 PWs)   bands (ev):

   -12.7214  -7.5470  -6.7049  -3.1536  -0.5032   3.2023   4.9533   5.1281

          k = 0.0821-0.3328 0.0000 (  5029 PWs)   bands (ev):

   -13.3306  -7.4391  -6.3985  -2.6971   1.0231   2.2470   3.8433   4.5659

          k = 0.0825-0.2378 0.0000 (  5010 PWs)   bands (ev):

   -13.8623  -8.0748  -5.1626  -2.0769   1.4715   2.6207   3.2009   3.8323

          k = 0.0828-0.1428 0.0000 (  5003 PWs)   bands (ev):

   -14.2404  -8.5248  -4.0652  -1.4388   0.9503   2.3476   3.3062   4.8500

          k = 0.1663-0.0956 0.0000 (  5007 PWs)   bands (ev):

   -14.1459  -8.4637  -4.1295  -1.9010   1.1107   2.4843   3.4736   5.3168

          k = 0.1667-0.0006 0.0000 (  4991 PWs)   bands (ev):

   -14.2413  -8.5751  -3.7745  -1.8086   0.9820   2.3529   3.3419   5.9835

          k = 0.1670 0.0944 0.0000 (  5007 PWs)   bands (ev):

   -14.1459  -8.4637  -4.1298  -1.9006   1.1106   2.4843   3.4737   5.3166

          k = 0.1673 0.1894 0.0000 (  5031 PWs)   bands (ev):

   -13.8653  -8.1361  -4.9450  -2.3549   1.5012   2.7875   3.7077   3.8720

          k = 0.1677 0.2844 0.0000 (  5037 PWs)   bands (ev):

   -13.4202  -7.6162  -5.9413  -3.0814   1.7775   2.1581   3.7364   4.5402

          k = 0.1680 0.3794 0.0000 (  5046 PWs)   bands (ev):

   -12.8615  -6.9701  -6.9628  -3.7538   0.2973   3.0546   4.6609   5.4139

          k = 0.1643-0.6656 0.0000 (  5071 PWs)   bands (ev):

   -12.3157  -7.8378  -6.3236  -4.1895  -0.8653   4.0806   5.7897   6.1214

          k = 0.1646-0.5706 0.0000 (  5067 PWs)   bands (ev):

   -12.0601  -8.2085  -6.0238  -4.3371  -1.3429   4.6949   6.5067   6.8288

          k = 0.1650-0.4756 0.0000 (  5071 PWs)   bands (ev):

   -12.3157  -7.8378  -6.3236  -4.1895  -0.8652   4.0807   5.7898   6.1216

          k = 0.1653-0.3806 0.0000 (  5048 PWs)   bands (ev):

   -12.8614  -6.9701  -6.9628  -3.7539   0.2975   3.0547   4.6610   5.4139

          k = 0.1656-0.2856 0.0000 (  5037 PWs)   bands (ev):

   -13.4201  -7.6162  -5.9411  -3.0816   1.7777   2.1581   3.7365   4.5402

          k = 0.1660-0.1906 0.0000 (  5031 PWs)   bands (ev):

   -13.8653  -8.1361  -4.9447  -2.3553   1.5012   2.7875   3.7078   3.8720

          k = 0.2495-0.1434 0.0000 (  5031 PWs)   bands (ev):

   -13.6889  -8.0150  -5.2036  -2.7768   1.8041   2.9949   3.9844   4.1848

          k = 0.2498-0.0484 0.0000 (  5026 PWs)   bands (ev):

   -13.8680  -8.2168  -4.5809  -2.8085   1.5419   2.8914   3.9215   5.1353

          k = 0.2502 0.0466 0.0000 (  5026 PWs)   bands (ev):

   -13.8680  -8.2168  -4.5812  -2.8082   1.5419   2.8913   3.9214   5.1348

          k = 0.2505 0.1416 0.0000 (  5031 PWs)   bands (ev):

   -13.6890  -8.0151  -5.2040  -2.7762   1.8041   2.9947   3.9840   4.1847

          k = 0.2509 0.2366 0.0000 (  5038 PWs)   bands (ev):

   -13.3459  -7.6293  -5.9696  -3.2439   2.1804   2.3268   3.9540   4.7062

          k = 0.2512 0.3316 0.0000 (  5053 PWs)   bands (ev):

   -12.8771  -7.1045  -6.7023  -4.0697   0.9584   3.1039   4.6886   5.5105

          k = 0.2474-0.7134 0.0000 (  5056 PWs)   bands (ev):

   -12.3691  -7.3438  -6.5395  -4.8382  -0.0948   4.0812   5.5521   6.4649

          k = 0.2478-0.6184 0.0000 (  5062 PWs)   bands (ev):

   -11.9999  -7.7725  -6.1328  -5.2721  -0.7497   5.0233   5.9125   6.9645

          k = 0.2481-0.5234 0.0000 (  5062 PWs)   bands (ev):

   -11.9999  -7.7725  -6.1328  -5.2722  -0.7497   5.0233   5.9124   6.9644

          k = 0.2485-0.4284 0.0000 (  5056 PWs)   bands (ev):

   -12.3690  -7.3437  -6.5395  -4.8384  -0.0946   4.0813   5.5519   6.4651

          k = 0.2488-0.3334 0.0000 (  5053 PWs)   bands (ev):

   -12.8770  -7.1044  -6.7020  -4.0701   0.9587   3.1040   4.6887   5.5105

          k = 0.2491-0.2384 0.0000 (  5038 PWs)   bands (ev):

   -13.3458  -7.6292  -5.9692  -3.2444   2.1807   2.3269   3.9541   4.7058

          k = 0.3326-0.1912 0.0000 (  5036 PWs)   bands (ev):

   -13.1199  -7.4859  -6.3735  -3.4305   2.1844   2.7625   4.3965   4.7589

          k = 0.3330-0.0962 0.0000 (  5043 PWs)   bands (ev):

   -13.3516  -7.7304  -5.6740  -3.6096   2.3727   3.1661   4.0574   4.7796

          k = 0.3333-0.0012 0.0000 (  5043 PWs)   bands (ev):

   -13.4322  -7.8156  -5.2355  -3.9213   2.2403   3.5386   4.1839   4.6458

          k = 0.3337 0.0938 0.0000 (  5043 PWs)   bands (ev):

   -13.3517  -7.7304  -5.6745  -3.6090   2.3726   3.1658   4.0573   4.7800

          k = 0.3340 0.1888 0.0000 (  5036 PWs)   bands (ev):

   -13.1200  -7.4859  -6.3740  -3.4298   2.1839   2.7624   4.3964   4.7596

          k = 0.3344 0.2838 0.0000 (  5056 PWs)   bands (ev):

   -12.7704  -7.1190  -6.9565  -3.8874   1.2454   3.3963   5.0416   5.1363

          k = 0.3306-0.7612 0.0000 (  5051 PWs)   bands (ev):

   -12.3714  -7.3091  -6.7021  -4.7782   0.5069   4.2412   5.7168   6.3172

          k = 0.3309-0.6662 0.0000 (  5056 PWs)   bands (ev):

   -12.0381  -7.3838  -6.3533  -5.6721   0.0239   5.1253   5.4976   7.1182

          k = 0.3313-0.5712 0.0000 (  5049 PWs)   bands (ev):

   -11.9053  -7.3157  -6.2135  -6.1030  -0.1477   5.2367   5.5441   7.5019

          k = 0.3316-0.4762 0.0000 (  5056 PWs)   bands (ev):

   -12.0380  -7.3836  -6.3533  -5.6724   0.0241   5.1254   5.4975   7.1177

          k = 0.3320-0.3812 0.0000 (  5051 PWs)   bands (ev):

   -12.3713  -7.3089  -6.7021  -4.7787   0.5072   4.2414   5.7168   6.3163

          k = 0.3323-0.2862 0.0000 (  5056 PWs)   bands (ev):

   -12.7703  -7.1190  -6.9562  -3.8880   1.2458   3.3964   5.0417   5.1354

          k = 0.4158-0.2390 0.0000 (  5035 PWs)   bands (ev):

   -12.5736  -7.3427  -7.0207  -3.8211   1.2043   3.9279   4.5662   5.6229

          k = 0.4162-0.1440 0.0000 (  5059 PWs)   bands (ev):

   -12.7790  -7.2141  -6.7839  -4.0993   1.9279   3.4459   4.9588   5.1891

          k = 0.4165-0.0490 0.0000 (  5060 PWs)   bands (ev):

   -12.8968  -7.3245  -6.0961  -4.7607   2.7461   3.1903   4.3802   5.6337

          k = 0.4168 0.0460 0.0000 (  5060 PWs)   bands (ev):

   -12.8968  -7.3245  -6.0965  -4.7602   2.7458   3.1903   4.3803   5.6336

          k = 0.4172 0.1410 0.0000 (  5059 PWs)   bands (ev):

   -12.7790  -7.2141  -6.7844  -4.0986   1.9274   3.4458   4.9588   5.1902

          k = 0.4175 0.2360 0.0000 (  5035 PWs)   bands (ev):

   -12.5737  -7.3431  -7.0208  -3.8204   1.2038   3.9278   4.5669   5.6228

          k = 0.4138-0.8090 0.0000 (  5051 PWs)   bands (ev):

   -12.3416  -7.6000  -6.7963  -4.2380   0.7726   4.5571   5.0439   6.3345

          k = 0.4141-0.7140 0.0000 (  5056 PWs)   bands (ev):

   -12.1561  -7.4733  -6.6041  -5.1276   0.6512   5.0930   5.7494   6.2887

          k = 0.4144-0.6190 0.0000 (  5053 PWs)   bands (ev):

   -12.0613  -6.9590  -6.4957  -6.1081   0.7093   4.9369   5.2002   7.2558

          k = 0.4148-0.5240 0.0000 (  5053 PWs)   bands (ev):

   -12.0612  -6.9586  -6.4957  -6.1086   0.7095   4.9367   5.2002   7.2562

          k = 0.4151-0.4290 0.0000 (  5056 PWs)   bands (ev):

   -12.1560  -7.4729  -6.6041  -5.1282   0.6515   5.0932   5.7490   6.2878

          k = 0.4155-0.3340 0.0000 (  5051 PWs)   bands (ev):

   -12.3415  -7.5997  -6.7963  -4.2386   0.7731   4.5573   5.0431   6.3345

          k =-0.4990 0.2868 0.0000 (  5038 PWs)   bands (ev):

   -12.3235  -7.7433  -6.8264  -3.9507   0.8254   4.4812   4.8312   6.2515

          k =-0.4986 0.3818 0.0000 (  5049 PWs)   bands (ev):

   -12.3467  -7.5433  -6.8381  -4.3058   1.0071   4.6103   5.0277   6.1719

          k =-0.4983 0.4768 0.0000 (  5054 PWs)   bands (ev):

   -12.3914  -6.9914  -6.8611  -5.1292   1.4576   4.3206   5.1631   6.3679

          k =-0.4979 0.5718 0.0000 (  5075 PWs)   bands (ev):

   -12.4129  -6.8725  -6.3833  -5.8580   1.7638   4.2100   4.6273   6.6801

          k =-0.4976 0.6668 0.0000 (  5054 PWs)   bands (ev):

   -12.3914  -6.9919  -6.8611  -5.1286   1.4572   4.3204   5.1636   6.3687

          k =-0.4973 0.7618 0.0000 (  5049 PWs)   bands (ev):

   -12.3468  -7.5437  -6.8381  -4.3052   1.0066   4.6102   5.0286   6.1719

          k =-0.5010-0.2832 0.0000 (  5038 PWs)   bands (ev):

   -12.3236  -7.7436  -6.8264  -3.9500   0.8249   4.4820   4.8310   6.2511

     the Fermi energy is    -1.2496 ev

!    total energy              =     -15.10429231 Ry
     estimated scf accuracy    <       0.00000095 Ry
     smearing contrib. (-TS)   =      -0.00015435 Ry
     internal energy E=F+TS    =     -15.10413796 Ry

     The total energy is F=E-TS. E is the sum of the following terms:
     one-electron contribution =     -65.62259855 Ry
     hartree contribution      =      34.37209393 Ry
     xc contribution           =      -7.33894497 Ry
     ewald contribution        =      23.48531157 Ry
     electric field correction =       0.00000006 Ry

     convergence has been achieved in   5 iterations

     negative rho (up, down):  3.347E-05 0.000E+00

     Forces acting on atoms (cartesian axes, Ry/au):

     atom    1 type  1   force =    -0.00001952    0.00403068    0.00003484
     atom    2 type  1   force =     0.00002262   -0.00400548    0.00003384
     atom    3 type  2   force =    -0.00000163   -0.00001206    0.00101970
     atom    4 type  2   force =    -0.00000147   -0.00001314   -0.00108838
     The non-local contrib.  to forces
     atom    1 type  1   force =    -0.00130177   -0.35205226   -0.00010170
     atom    2 type  1   force =     0.00131963    0.35209237   -0.00010321
     atom    3 type  2   force =    -0.00000732    0.00000397   -0.11395744
     atom    4 type  2   force =    -0.00000736    0.00000382    0.11399918
     The ionic contribution  to forces
     atom    1 type  1   force =     0.00243489    0.69536125    0.00000000
     atom    2 type  1   force =    -0.00253035   -0.69527768    0.00000000
     atom    3 type  2   force =     0.00004773   -0.00004178    2.57657827
     atom    4 type  2   force =     0.00004773   -0.00004178   -2.57657827
     The local contribution  to forces
     atom    1 type  1   force =    -0.00118223   -0.34721369    0.00118728
     atom    2 type  1   force =     0.00126129    0.34711745    0.00118807
     atom    3 type  2   force =    -0.00004262    0.00002300   -2.46138357
     atom    4 type  2   force =    -0.00004260    0.00002252    2.46174265
     The core correction contribution to forces
     atom    1 type  1   force =     0.00002874    0.00767150    0.00000770
     atom    2 type  1   force =    -0.00002862   -0.00767343    0.00000774
     atom    3 type  2   force =     0.00000000    0.00000000    0.00000000
     atom    4 type  2   force =     0.00000000    0.00000000    0.00000000
     The Hubbard contrib.    to forces
     atom    1 type  1   force =     0.00000000    0.00000000    0.00000000
     atom    2 type  1   force =     0.00000000    0.00000000    0.00000000
     atom    3 type  2   force =     0.00000000    0.00000000    0.00000000
     atom    4 type  2   force =     0.00000000    0.00000000    0.00000000
     The SCF correction term to forces
     atom    1 type  1   force =     0.00000018    0.00026356   -0.00122995
     atom    2 type  1   force =     0.00000000   -0.00026452   -0.00123027
     atom    3 type  2   force =    -0.00000010    0.00000244   -0.00024803
     atom    4 type  2   force =     0.00000007    0.00000198   -0.00028241

     Total force =     0.005875     Total SCF correction =     0.001819
     SCF correction compared to forces is large: reduce conv_thr to get better values

     Writing all to output data dir ./TMPDIR/pwscf.save/
 
     init_run     :     14.10s CPU     14.34s WALL (       1 calls)
     electrons    :      3.46s CPU      3.72s WALL (       1 calls)
     forces       :      0.18s CPU      0.19s WALL (       1 calls)

     Called by init_run:
     wfcinit      :      0.21s CPU      0.22s WALL (       1 calls)
     potinit      :     13.70s CPU     13.77s WALL (       1 calls)
     hinit0       :      0.15s CPU      0.31s WALL (       1 calls)

     Called by electrons:
     c_bands      :      2.73s CPU      2.84s WALL (       5 calls)
     sum_band     :      0.41s CPU      0.49s WALL (       5 calls)
     v_of_rho     :     13.92s CPU     14.01s WALL (       6 calls)
     newd         :      0.03s CPU      0.04s WALL (       6 calls)
     mix_rho      :      0.01s CPU      0.01s WALL (       5 calls)
     vdW_kernel   :     13.60s CPU     13.65s WALL (       1 calls)

     Called by c_bands:
     init_us_2    :      0.07s CPU      0.07s WALL (     888 calls)
     init_us_2:cp :      0.07s CPU      0.07s WALL (     888 calls)
     cegterg      :      2.61s CPU      2.71s WALL (     370 calls)

     Called by *egterg:
     cdiaghg      :      0.19s CPU      0.20s WALL (    1918 calls)
     h_psi        :      2.25s CPU      2.33s WALL (    1992 calls)
     s_psi        :      0.05s CPU      0.05s WALL (    1992 calls)
     g_psi        :      0.02s CPU      0.02s WALL (    1548 calls)

     Called by h_psi:
     h_psi:calbec :      0.11s CPU      0.11s WALL (    1992 calls)
     vloc_psi     :      2.07s CPU      2.15s WALL (    1992 calls)
     add_vuspsi   :      0.05s CPU      0.06s WALL (    1992 calls)

     General routines
     calbec       :      0.14s CPU      0.14s WALL (    2658 calls)
     fft          :      0.23s CPU      0.40s WALL (     437 calls)
     ffts         :      0.00s CPU      0.00s WALL (      11 calls)
     fftw         :      2.06s CPU      2.14s WALL (   22986 calls)
     interpolate  :      0.00s CPU      0.00s WALL (       6 calls)
 
     Parallel routines
 
     PWSCF        :     17.88s CPU     23.54s WALL

 
   This run was terminated on:  18:24:52  12Mar2024            

=------------------------------------------------------------------------------=
   JOB DONE.
=------------------------------------------------------------------------------=
