[0] MPI startup(): I_MPI_TCP_NETMASK variable has been removed from the product, its value is ignored


     Program PWSCF v.7.2 starts on 12Mar2024 at 17:35:21 

     This program is part of the open-source Quantum ESPRESSO suite
     for quantum simulation of materials; please cite
         "P. Giannozzi et al., J. Phys.:Condens. Matter 21 395502 (2009);
         "P. Giannozzi et al., J. Phys.:Condens. Matter 29 465901 (2017);
         "P. Giannozzi et al., J. Chem. Phys. 152 154105 (2020);
          URL http://www.quantum-espresso.org", 
     in publications or presentations arising from this work. More details at
     http://www.quantum-espresso.org/quote

     Parallel version (MPI), running on    16 processors

     MPI processes distributed on     1 nodes
     31548 MiB available memory on the printing compute node when the environment starts
 
     Reading input from espresso.pwi
Warning: card &CELL ignored
Warning: card / ignored

     Current dimensions of program PWSCF are:
     Max number of different atomic species (ntypx) = 10
     Max number of k-points (npk) =  40000
     Max angular momentum in pseudopotentials (lmaxx) =  4
 
     R & G space division:  proc/nbgrp/npool/nimage =      16
     Subspace diagonalization in iterative solution of the eigenvalue problem:
     a serial algorithm will be used

 
     Parallelization info
     --------------------
     sticks:   dense  smooth     PW     G-vecs:    dense   smooth      PW
     Min          67      34     10                 7115     2515     444
     Max          68      36     11                 7126     2519     463
     Sum        1085     551    167               113933    40273    7201
 
     Using Slab Decomposition
 


     bravais-lattice index     =            0
     lattice parameter (alat)  =       5.6973  a.u.
     unit-cell volume          =     642.1518 (a.u.)^3
     number of atoms/cell      =            4
     number of atomic types    =            2
     number of electrons       =         8.00
     number of Kohn-Sham states=            8
     kinetic-energy cutoff     =      60.0000  Ry
     charge density cutoff     =     480.0000  Ry
     scf convergence threshold =      1.0E-06
     mixing beta               =       0.7000
     number of iterations used =            8  plain     mixing
     Exchange-correlation=  SLA  PW   PBX  PBC
                           (   1   4   3   4   0   0   0)

     celldm(1)=   5.697334  celldm(2)=   0.000000  celldm(3)=   0.000000
     celldm(4)=   0.000000  celldm(5)=   0.000000  celldm(6)=   0.000000

     crystal axes: (cart. coord. in units of alat)
               a(1) = (   0.999994  -0.003591   0.000000 )  
               a(2) = (   0.503167   0.875437   0.000000 )  
               a(3) = (   0.000000   0.000000   3.958265 )  

     reciprocal axes: (cart. coord. in units 2 pi/alat)
               b(1) = (  0.997946 -0.573581  0.000000 )  
               b(2) = (  0.004094  1.139933  0.000000 )  
               b(3) = (  0.000000  0.000000  0.252636 )  


     PseudoPot. # 1 for B  read from file:
     /home/krojas/QE/pseudo/b_pbe_v1.4.uspp.F.UPF
     MD5 check sum: cc6de2960df11db49a60e589f9ebb39b
     Pseudo is Ultrasoft + core correction, Zval =  3.0
     Generated by new atomic code, or converted to UPF format
     Using radial grid of  781 points,  4 beta functions with: 
                l(1) =   0
                l(2) =   0
                l(3) =   1
                l(4) =   1
     Q(r) pseudized with  8 coefficients,  rinner =    1.100   1.100   1.100


     PseudoPot. # 2 for H  read from file:
     /home/krojas/QE/pseudo/h_pbe_v1.4.uspp.F.UPF
     MD5 check sum: 761ae9a214b05c3daf00ab9f6b793d6f
     Pseudo is Ultrasoft, Zval =  1.0
     Generated by new atomic code, or converted to UPF format
     Using radial grid of  615 points,  2 beta functions with: 
                l(1) =   0
                l(2) =   0
     Q(r) pseudized with  8 coefficients,  rinner =    0.700

     atomic species   valence    mass     pseudopotential
        B              3.00    10.81000     B ( 1.00)
        H              1.00     1.00800     H ( 1.00)

     No symmetry found



   Cartesian axes

     site n.     atom                  positions (alat units)
         1           B   tau(   1) = (   0.0000000   0.0000000   1.9791325  )
         2           B   tau(   2) = (   0.5009657   0.2715580   1.9791325  )
         3           H   tau(   3) = (   0.5020846   0.5735104   2.3031518  )
         4           H   tau(   4) = (   0.5020846   0.5735104   1.6584302  )

     number of k points=    74  Gaussian smearing, width (Ry)=  0.0100
                       cart. coord. in units 2pi/alat
        k(    1) = (   0.0000000   0.0000000   0.0000000), wk =   0.0138889
        k(    2) = (   0.0003412   0.0949944   0.0000000), wk =   0.0277778
        k(    3) = (   0.0006823   0.1899889   0.0000000), wk =   0.0277778
        k(    4) = (   0.0010235   0.2849833   0.0000000), wk =   0.0277778
        k(    5) = (   0.0013646   0.3799777   0.0000000), wk =   0.0277778
        k(    6) = (   0.0017058   0.4749722   0.0000000), wk =   0.0277778
        k(    7) = (  -0.0020470  -0.5699666   0.0000000), wk =   0.0138889
        k(    8) = (   0.0831622  -0.0477984   0.0000000), wk =   0.0277778
        k(    9) = (   0.0835034   0.0471960   0.0000000), wk =   0.0277778
        k(   10) = (   0.0838445   0.1421905   0.0000000), wk =   0.0277778
        k(   11) = (   0.0841857   0.2371849   0.0000000), wk =   0.0277778
        k(   12) = (   0.0845269   0.3321793   0.0000000), wk =   0.0277778
        k(   13) = (   0.0848680   0.4271738   0.0000000), wk =   0.0277778
        k(   14) = (   0.0811152  -0.6177650   0.0000000), wk =   0.0277778
        k(   15) = (   0.0814564  -0.5227706   0.0000000), wk =   0.0277778
        k(   16) = (   0.0817976  -0.4277762   0.0000000), wk =   0.0277778
        k(   17) = (   0.0821387  -0.3327817   0.0000000), wk =   0.0277778
        k(   18) = (   0.0824799  -0.2377873   0.0000000), wk =   0.0277778
        k(   19) = (   0.0828210  -0.1427928   0.0000000), wk =   0.0277778
        k(   20) = (   0.1663244  -0.0955968   0.0000000), wk =   0.0277778
        k(   21) = (   0.1666656  -0.0006024   0.0000000), wk =   0.0277778
        k(   22) = (   0.1670067   0.0943921   0.0000000), wk =   0.0277778
        k(   23) = (   0.1673479   0.1893865   0.0000000), wk =   0.0277778
        k(   24) = (   0.1676891   0.2843809   0.0000000), wk =   0.0277778
        k(   25) = (   0.1680302   0.3793754   0.0000000), wk =   0.0277778
        k(   26) = (   0.1642774  -0.6655634   0.0000000), wk =   0.0277778
        k(   27) = (   0.1646186  -0.5705690   0.0000000), wk =   0.0277778
        k(   28) = (   0.1649598  -0.4755746   0.0000000), wk =   0.0277778
        k(   29) = (   0.1653009  -0.3805801   0.0000000), wk =   0.0277778
        k(   30) = (   0.1656421  -0.2855857   0.0000000), wk =   0.0277778
        k(   31) = (   0.1659833  -0.1905913   0.0000000), wk =   0.0277778
        k(   32) = (   0.2494866  -0.1433952   0.0000000), wk =   0.0277778
        k(   33) = (   0.2498278  -0.0484008   0.0000000), wk =   0.0277778
        k(   34) = (   0.2501689   0.0465936   0.0000000), wk =   0.0277778
        k(   35) = (   0.2505101   0.1415881   0.0000000), wk =   0.0277778
        k(   36) = (   0.2508513   0.2365825   0.0000000), wk =   0.0277778
        k(   37) = (   0.2511924   0.3315769   0.0000000), wk =   0.0277778
        k(   38) = (   0.2474397  -0.7133618   0.0000000), wk =   0.0277778
        k(   39) = (   0.2477808  -0.6183674   0.0000000), wk =   0.0277778
        k(   40) = (   0.2481220  -0.5233730   0.0000000), wk =   0.0277778
        k(   41) = (   0.2484631  -0.4283785   0.0000000), wk =   0.0277778
        k(   42) = (   0.2488043  -0.3333841   0.0000000), wk =   0.0277778
        k(   43) = (   0.2491455  -0.2383897   0.0000000), wk =   0.0277778
        k(   44) = (   0.3326488  -0.1911936   0.0000000), wk =   0.0277778
        k(   45) = (   0.3329900  -0.0961992   0.0000000), wk =   0.0277778
        k(   46) = (   0.3333312  -0.0012048   0.0000000), wk =   0.0277778
        k(   47) = (   0.3336723   0.0937897   0.0000000), wk =   0.0277778
        k(   48) = (   0.3340135   0.1887841   0.0000000), wk =   0.0277778
        k(   49) = (   0.3343546   0.2837785   0.0000000), wk =   0.0277778
        k(   50) = (   0.3306019  -0.7611603   0.0000000), wk =   0.0277778
        k(   51) = (   0.3309430  -0.6661658   0.0000000), wk =   0.0277778
        k(   52) = (   0.3312842  -0.5711714   0.0000000), wk =   0.0277778
        k(   53) = (   0.3316253  -0.4761769   0.0000000), wk =   0.0277778
        k(   54) = (   0.3319665  -0.3811825   0.0000000), wk =   0.0277778
        k(   55) = (   0.3323077  -0.2861881   0.0000000), wk =   0.0277778
        k(   56) = (   0.4158110  -0.2389921   0.0000000), wk =   0.0277778
        k(   57) = (   0.4161522  -0.1439976   0.0000000), wk =   0.0277778
        k(   58) = (   0.4164934  -0.0490032   0.0000000), wk =   0.0277778
        k(   59) = (   0.4168345   0.0459913   0.0000000), wk =   0.0277778
        k(   60) = (   0.4171757   0.1409857   0.0000000), wk =   0.0277778
        k(   61) = (   0.4175169   0.2359801   0.0000000), wk =   0.0277778
        k(   62) = (   0.4137641  -0.8089587   0.0000000), wk =   0.0277778
        k(   63) = (   0.4141052  -0.7139642   0.0000000), wk =   0.0277778
        k(   64) = (   0.4144464  -0.6189698   0.0000000), wk =   0.0277778
        k(   65) = (   0.4147876  -0.5239754   0.0000000), wk =   0.0277778
        k(   66) = (   0.4151287  -0.4289809   0.0000000), wk =   0.0277778
        k(   67) = (   0.4154699  -0.3339865   0.0000000), wk =   0.0277778
        k(   68) = (  -0.4989732   0.2867905   0.0000000), wk =   0.0138889
        k(   69) = (  -0.4986321   0.3817849   0.0000000), wk =   0.0277778
        k(   70) = (  -0.4982909   0.4767793   0.0000000), wk =   0.0277778
        k(   71) = (  -0.4979498   0.5717738   0.0000000), wk =   0.0277778
        k(   72) = (  -0.4976086   0.6667682   0.0000000), wk =   0.0277778
        k(   73) = (  -0.4972674   0.7617626   0.0000000), wk =   0.0277778
        k(   74) = (  -0.5010202  -0.2831762   0.0000000), wk =   0.0138889

     Dense  grid:   113933 G-vectors     FFT dimensions: (  40,  45, 160)

     Smooth grid:    40273 G-vectors     FFT dimensions: (  30,  30, 120)

     Estimated max dynamical RAM per process >      13.53 MB

     Estimated total dynamical RAM >     216.40 MB

     Initial potential from superposition of free atoms

     starting charge       7.9994, renormalised to       8.0000

     negative rho (up, down):  1.261E-05 0.000E+00
     Starting wfcs are   10 randomized atomic wfcs

     total cpu time spent up to now is        0.5 secs

     Self-consistent Calculation

     iteration #  1     ecut=    60.00 Ry     beta= 0.70
     Davidson diagonalization with overlap
     ethr =  1.00E-02,  avg # of iterations =  3.8

     negative rho (up, down):  1.219E-05 0.000E+00

     total cpu time spent up to now is        1.2 secs

     total energy              =     -15.01254602 Ry
     estimated scf accuracy    <       0.32435476 Ry

     iteration #  2     ecut=    60.00 Ry     beta= 0.70
     Davidson diagonalization with overlap
     ethr =  4.05E-03,  avg # of iterations =  3.6

     negative rho (up, down):  2.137E-05 0.000E+00

     total cpu time spent up to now is        1.8 secs

     total energy              =     -15.06590256 Ry
     estimated scf accuracy    <       0.01815717 Ry

     iteration #  3     ecut=    60.00 Ry     beta= 0.70
     Davidson diagonalization with overlap
     ethr =  2.27E-04,  avg # of iterations =  5.1

     negative rho (up, down):  3.101E-05 0.000E+00

     total cpu time spent up to now is        2.5 secs

     total energy              =     -15.06900291 Ry
     estimated scf accuracy    <       0.00057408 Ry

     iteration #  4     ecut=    60.00 Ry     beta= 0.70
     Davidson diagonalization with overlap
     c_bands:  1 eigenvalues not converged
     c_bands:  1 eigenvalues not converged
     ethr =  7.18E-06,  avg # of iterations =  6.2

     negative rho (up, down):  3.198E-05 0.000E+00

     total cpu time spent up to now is        3.3 secs

     total energy              =     -15.06908217 Ry
     estimated scf accuracy    <       0.00009221 Ry

     iteration #  5     ecut=    60.00 Ry     beta= 0.70
     Davidson diagonalization with overlap
     ethr =  1.15E-06,  avg # of iterations =  2.5

     negative rho (up, down):  3.352E-05 0.000E+00

     total cpu time spent up to now is        3.9 secs

     total energy              =     -15.06910655 Ry
     estimated scf accuracy    <       0.00000590 Ry

     iteration #  6     ecut=    60.00 Ry     beta= 0.70
     Davidson diagonalization with overlap
     ethr =  7.38E-08,  avg # of iterations =  2.0

     negative rho (up, down):  3.388E-05 0.000E+00

     total cpu time spent up to now is        4.4 secs

     End of self-consistent calculation

          k = 0.0000 0.0000 0.0000 (  5017 PWs)   bands (ev):

   -14.4386  -8.7383  -2.9490  -0.5068   0.9604   2.3874   2.9986   5.6712

          k = 0.0003 0.0950 0.0000 (  4979 PWs)   bands (ev):

   -14.3394  -8.6203  -3.3420  -0.7585   1.0809   2.5292   3.1233   5.7934

          k = 0.0007 0.1900 0.0000 (  4988 PWs)   bands (ev):

   -14.0466  -8.2716  -4.3437  -1.3337   1.4579   2.9332   3.5068   4.0498

          k = 0.0010 0.2850 0.0000 (  5020 PWs)   bands (ev):

   -13.5782  -7.7116  -5.6251  -1.9569   2.0087   2.0929   3.7279   4.1233

          k = 0.0014 0.3800 0.0000 (  5038 PWs)   bands (ev):

   -12.9798  -6.9922  -6.9155  -2.4682   0.2722   2.9168   4.7116   4.7296

          k = 0.0017 0.4750 0.0000 (  5038 PWs)   bands (ev):

   -12.3756  -7.9748  -6.2522  -2.7950  -1.0955   3.6612   5.1511   5.9739

          k =-0.0020-0.5700 0.0000 (  5036 PWs)   bands (ev):

   -12.0802  -8.4269  -5.8840  -2.9067  -1.6758   3.8868   5.9255   6.5327

          k = 0.0832-0.0478 0.0000 (  5007 PWs)   bands (ev):

   -14.3395  -8.6374  -3.2313  -0.8994   1.0955   2.5294   3.1389   5.7377

          k = 0.0835 0.0472 0.0000 (  5007 PWs)   bands (ev):

   -14.3395  -8.6374  -3.2314  -0.8993   1.0955   2.5294   3.1390   5.7381

          k = 0.0838 0.1422 0.0000 (  5003 PWs)   bands (ev):

   -14.1438  -8.4057  -3.9320  -1.3107   1.3445   2.8054   3.3948   4.9302

          k = 0.0842 0.2372 0.0000 (  5010 PWs)   bands (ev):

   -13.7631  -7.9544  -5.0420  -1.9591   1.8567   2.8434   3.5155   3.9144

          k = 0.0845 0.3322 0.0000 (  5029 PWs)   bands (ev):

   -13.2270  -7.3160  -6.2908  -2.5868   1.1149   2.6128   4.2871   4.6417

          k = 0.0849 0.4272 0.0000 (  5030 PWs)   bands (ev):

   -12.6110  -7.4523  -6.5763  -3.0475  -0.4216   3.5103   5.2544   5.4029

          k = 0.0811-0.6178 0.0000 (  5055 PWs)   bands (ev):

   -12.1198  -8.2354  -5.9786  -3.2863  -1.4264   4.1605   5.8361   6.7253

          k = 0.0815-0.5228 0.0000 (  5055 PWs)   bands (ev):

   -12.1197  -8.2354  -5.9786  -3.2863  -1.4264   4.1605   5.8361   6.7254

          k = 0.0818-0.4278 0.0000 (  5030 PWs)   bands (ev):

   -12.6110  -7.4523  -6.5763  -3.0475  -0.4216   3.5103   5.2544   5.4030

          k = 0.0821-0.3328 0.0000 (  5029 PWs)   bands (ev):

   -13.2269  -7.3160  -6.2907  -2.5868   1.1150   2.6129   4.2872   4.6416

          k = 0.0825-0.2378 0.0000 (  5010 PWs)   bands (ev):

   -13.7631  -7.9543  -5.0420  -1.9592   1.8567   2.8435   3.5155   3.9144

          k = 0.0828-0.1428 0.0000 (  5003 PWs)   bands (ev):

   -14.1438  -8.4057  -3.9318  -1.3109   1.3445   2.8054   3.3949   4.9304

          k = 0.1663-0.0956 0.0000 (  5007 PWs)   bands (ev):

   -14.0484  -8.3448  -3.9993  -1.7745   1.5069   2.9432   3.5639   5.3959

          k = 0.1667-0.0006 0.0000 (  4991 PWs)   bands (ev):

   -14.1445  -8.4565  -3.6385  -1.6825   1.3804   2.8117   3.4345   6.0561

          k = 0.1670 0.0944 0.0000 (  5007 PWs)   bands (ev):

   -14.0484  -8.3448  -3.9995  -1.7741   1.5068   2.9432   3.5639   5.3955

          k = 0.1673 0.1894 0.0000 (  5031 PWs)   bands (ev):

   -13.7658  -8.0163  -4.8240  -2.2363   1.8912   3.1852   3.8463   3.9577

          k = 0.1677 0.2844 0.0000 (  5037 PWs)   bands (ev):

   -13.3171  -7.4944  -5.8295  -2.9750   1.8823   2.5377   4.1660   4.6205

          k = 0.1680 0.3794 0.0000 (  5046 PWs)   bands (ev):

   -12.7526  -6.8724  -6.8339  -3.6559   0.3828   3.4109   5.1042   5.4954

          k = 0.1643-0.6656 0.0000 (  5071 PWs)   bands (ev):

   -12.1989  -7.7485  -6.1919  -4.0955  -0.7891   4.3718   6.2168   6.2840

          k = 0.1646-0.5706 0.0000 (  5067 PWs)   bands (ev):

   -11.9383  -8.1255  -5.8880  -4.2442  -1.2716   4.8867   6.9025   6.9229

          k = 0.1650-0.4756 0.0000 (  5071 PWs)   bands (ev):

   -12.1989  -7.7485  -6.1919  -4.0955  -0.7890   4.3718   6.2169   6.2841

          k = 0.1653-0.3806 0.0000 (  5048 PWs)   bands (ev):

   -12.7525  -6.8724  -6.8338  -3.6560   0.3829   3.4110   5.1043   5.4953

          k = 0.1656-0.2856 0.0000 (  5037 PWs)   bands (ev):

   -13.3170  -7.4944  -5.8294  -2.9753   1.8825   2.5378   4.1661   4.6206

          k = 0.1660-0.1906 0.0000 (  5031 PWs)   bands (ev):

   -13.7658  -8.0163  -4.8237  -2.2366   1.8912   3.1853   3.8464   3.9580

          k = 0.2495-0.1434 0.0000 (  5031 PWs)   bands (ev):

   -13.5878  -7.8953  -5.0904  -2.6540   2.1953   3.3678   4.1490   4.2703

          k = 0.2498-0.0484 0.0000 (  5026 PWs)   bands (ev):

   -13.7683  -8.0977  -4.4587  -2.6903   1.9375   3.3524   4.0110   5.2036

          k = 0.2502 0.0466 0.0000 (  5026 PWs)   bands (ev):

   -13.7683  -8.0977  -4.4590  -2.6900   1.9375   3.3524   4.0109   5.2033

          k = 0.2505 0.1416 0.0000 (  5031 PWs)   bands (ev):

   -13.5878  -7.8953  -5.0908  -2.6534   2.1952   3.3676   4.1488   4.2698

          k = 0.2509 0.2366 0.0000 (  5038 PWs)   bands (ev):

   -13.2416  -7.5081  -5.8633  -3.1297   2.3049   2.7091   4.3642   4.7850

          k = 0.2512 0.3316 0.0000 (  5053 PWs)   bands (ev):

   -12.7679  -6.9809  -6.6017  -3.9698   1.0507   3.4711   5.1215   5.5908

          k = 0.2474-0.7134 0.0000 (  5056 PWs)   bands (ev):

   -12.2528  -7.2506  -6.4114  -4.7491  -0.0153   4.4142   5.9464   6.5712

          k = 0.2478-0.6184 0.0000 (  5062 PWs)   bands (ev):

   -11.8769  -7.6864  -6.0003  -5.1878  -0.6780   5.2724   6.1851   7.2761

          k = 0.2481-0.5234 0.0000 (  5062 PWs)   bands (ev):

   -11.8768  -7.6864  -6.0003  -5.1879  -0.6779   5.2724   6.1851   7.2765

          k = 0.2485-0.4284 0.0000 (  5056 PWs)   bands (ev):

   -12.2528  -7.2505  -6.4114  -4.7492  -0.0152   4.4143   5.9463   6.5713

          k = 0.2488-0.3334 0.0000 (  5053 PWs)   bands (ev):

   -12.7678  -6.9809  -6.6015  -3.9702   1.0510   3.4712   5.1218   5.5909

          k = 0.2491-0.2384 0.0000 (  5038 PWs)   bands (ev):

   -13.2416  -7.5081  -5.8630  -3.1302   2.3052   2.7092   4.3643   4.7847

          k = 0.3326-0.1912 0.0000 (  5036 PWs)   bands (ev):

   -13.0129  -7.3649  -6.2770  -3.3087   2.3070   3.1423   4.8038   4.8130

          k = 0.3330-0.0962 0.0000 (  5043 PWs)   bands (ev):

   -13.2471  -7.6102  -5.5695  -3.4931   2.7613   3.3649   4.3956   4.8639

          k = 0.3333-0.0012 0.0000 (  5043 PWs)   bands (ev):

   -13.3284  -7.6957  -5.1233  -3.8135   2.6311   4.0028   4.2452   4.7320

          k = 0.3337 0.0938 0.0000 (  5043 PWs)   bands (ev):

   -13.2472  -7.6103  -5.5699  -3.4925   2.7612   3.3645   4.3955   4.8644

          k = 0.3340 0.1888 0.0000 (  5036 PWs)   bands (ev):

   -13.0130  -7.3649  -6.2774  -3.3080   2.3065   3.1422   4.8047   4.8130

          k = 0.3344 0.2838 0.0000 (  5056 PWs)   bands (ev):

   -12.6591  -6.9967  -6.8653  -3.7739   1.3464   3.7588   5.1949   5.4693

          k = 0.3306-0.7612 0.0000 (  5051 PWs)   bands (ev):

   -12.2543  -7.2226  -6.5765  -4.6790   0.5932   4.5760   6.0854   6.4028

          k = 0.3309-0.6662 0.0000 (  5056 PWs)   bands (ev):

   -11.9151  -7.2983  -6.2247  -5.5858   0.0983   5.3964   5.7407   7.4268

          k = 0.3313-0.5712 0.0000 (  5049 PWs)   bands (ev):

   -11.7798  -7.2282  -6.0837  -6.0236  -0.0781   5.4655   5.7612   7.8481

          k = 0.3316-0.4762 0.0000 (  5056 PWs)   bands (ev):

   -11.9150  -7.2981  -6.2247  -5.5862   0.0985   5.3966   5.7405   7.4269

          k = 0.3320-0.3812 0.0000 (  5051 PWs)   bands (ev):

   -12.2542  -7.2223  -6.5765  -4.6794   0.5935   4.5762   6.0853   6.4018

          k = 0.3323-0.2862 0.0000 (  5056 PWs)   bands (ev):

   -12.6590  -6.9966  -6.8650  -3.7745   1.3469   3.7589   5.1940   5.4694

          k = 0.4158-0.2390 0.0000 (  5035 PWs)   bands (ev):

   -12.4588  -7.2605  -6.8979  -3.6996   1.3070   4.2685   4.6218   6.0580

          k = 0.4162-0.1440 0.0000 (  5059 PWs)   bands (ev):

   -12.6675  -7.0924  -6.6951  -3.9833   2.0310   3.8177   5.2376   5.3915

          k = 0.4165-0.0490 0.0000 (  5060 PWs)   bands (ev):

   -12.7870  -7.2032  -5.9990  -4.6562   2.8264   3.5688   4.8069   5.7161

          k = 0.4168 0.0460 0.0000 (  5060 PWs)   bands (ev):

   -12.7871  -7.2032  -5.9993  -4.6557   2.8261   3.5688   4.8069   5.7161

          k = 0.4172 0.1410 0.0000 (  5059 PWs)   bands (ev):

   -12.6675  -7.0924  -6.6955  -3.9827   2.0305   3.8176   5.2384   5.3915

          k = 0.4175 0.2360 0.0000 (  5035 PWs)   bands (ev):

   -12.4590  -7.2608  -6.8979  -3.6989   1.3064   4.2684   4.6225   6.0579

          k = 0.4138-0.8090 0.0000 (  5051 PWs)   bands (ev):

   -12.2229  -7.5216  -6.6722  -4.1238   0.8678   4.8365   5.1327   6.7237

          k = 0.4141-0.7140 0.0000 (  5056 PWs)   bands (ev):

   -12.0344  -7.3949  -6.4786  -5.0264   0.7343   5.3647   6.0001   6.3585

          k = 0.4144-0.6190 0.0000 (  5053 PWs)   bands (ev):

   -11.9383  -6.8757  -6.3694  -6.0188   0.7798   5.1802   5.4781   7.5955

          k = 0.4148-0.5240 0.0000 (  5053 PWs)   bands (ev):

   -11.9383  -6.8753  -6.3694  -6.0192   0.7799   5.1801   5.4782   7.5957

          k = 0.4151-0.4290 0.0000 (  5056 PWs)   bands (ev):

   -12.0343  -7.3946  -6.4786  -5.0269   0.7346   5.3648   5.9997   6.3576

          k = 0.4155-0.3340 0.0000 (  5051 PWs)   bands (ev):

   -12.2228  -7.5212  -6.6722  -4.1244   0.8683   4.8364   5.1321   6.7236

          k =-0.4990 0.2868 0.0000 (  5038 PWs)   bands (ev):

   -12.2040  -7.6676  -6.7028  -3.8293   0.9244   4.5185   5.1235   6.6855

          k =-0.4986 0.3818 0.0000 (  5049 PWs)   bands (ev):

   -12.2280  -7.4656  -6.7145  -4.1908   1.1025   4.9313   5.0738   6.5713

          k =-0.4983 0.4768 0.0000 (  5054 PWs)   bands (ev):

   -12.2740  -6.9085  -6.7372  -5.0258   1.5394   4.6649   5.4927   6.4374

          k =-0.4979 0.5718 0.0000 (  5075 PWs)   bands (ev):

   -12.2962  -6.7491  -6.2942  -5.7626   1.8301   4.5606   4.9423   6.7766

          k =-0.4976 0.6668 0.0000 (  5054 PWs)   bands (ev):

   -12.2741  -6.9089  -6.7373  -5.0252   1.5390   4.6649   5.4930   6.4383

          k =-0.4973 0.7618 0.0000 (  5049 PWs)   bands (ev):

   -12.2281  -7.4660  -6.7145  -4.1901   1.1020   4.9312   5.0747   6.5714

          k =-0.5010-0.2832 0.0000 (  5038 PWs)   bands (ev):

   -12.2041  -7.6680  -6.7028  -3.8287   0.9239   4.5194   5.1233   6.6852

     the Fermi energy is    -1.1575 ev

!    total energy              =     -15.06910786 Ry
     estimated scf accuracy    <       0.00000013 Ry
     smearing contrib. (-TS)   =      -0.00016862 Ry
     internal energy E=F+TS    =     -15.06893924 Ry

     The total energy is F=E-TS. E is the sum of the following terms:
     one-electron contribution =     -65.58473123 Ry
     hartree contribution      =      34.37585302 Ry
     xc contribution           =      -7.29671939 Ry
     ewald contribution        =      23.43665836 Ry

     convergence has been achieved in   6 iterations

     negative rho (up, down):  3.388E-05 0.000E+00

     Forces acting on atoms (cartesian axes, Ry/au):

     atom    1 type  1   force =    -0.00003994   -0.00160285    0.00222535
     atom    2 type  1   force =     0.00004442    0.00162615    0.00222482
     atom    3 type  2   force =    -0.00000238   -0.00001154   -0.00538978
     atom    4 type  2   force =    -0.00000210   -0.00001177    0.00093961
     The non-local contrib.  to forces
     atom    1 type  1   force =    -0.00128210   -0.34590859    0.00245287
     atom    2 type  1   force =     0.00130431    0.34594815    0.00245269
     atom    3 type  2   force =    -0.00000714    0.00000406   -0.10957821
     atom    4 type  2   force =    -0.00000731    0.00000419    0.11106467
     The ionic contribution  to forces
     atom    1 type  1   force =     0.00240153    0.68607721    0.00127175
     atom    2 type  1   force =    -0.00249593   -0.68599499    0.00127032
     atom    3 type  2   force =     0.00004666   -0.00004043    2.57263298
     atom    4 type  2   force =     0.00004773   -0.00004178   -2.57517505
     The local contribution  to forces
     atom    1 type  1   force =    -0.00118738   -0.34914968   -0.00148776
     atom    2 type  1   force =     0.00126429    0.34905266   -0.00148744
     atom    3 type  2   force =    -0.00004193    0.00002503   -2.46847973
     atom    4 type  2   force =    -0.00004257    0.00002525    2.46501742
     The core correction contribution to forces
     atom    1 type  1   force =     0.00002732    0.00724047   -0.00011513
     atom    2 type  1   force =    -0.00002772   -0.00724203   -0.00011508
     atom    3 type  2   force =     0.00000000    0.00000000    0.00000000
     atom    4 type  2   force =     0.00000000    0.00000000    0.00000000
     The Hubbard contrib.    to forces
     atom    1 type  1   force =     0.00000000    0.00000000    0.00000000
     atom    2 type  1   force =     0.00000000    0.00000000    0.00000000
     atom    3 type  2   force =     0.00000000    0.00000000    0.00000000
     atom    4 type  2   force =     0.00000000    0.00000000    0.00000000
     The SCF correction term to forces
     atom    1 type  1   force =     0.00000074    0.00013774    0.00008169
     atom    2 type  1   force =    -0.00000049   -0.00013765    0.00008241
     atom    3 type  2   force =     0.00000007   -0.00000020    0.00001326
     atom    4 type  2   force =     0.00000009    0.00000057    0.00001065

     Total force =     0.006712     Total SCF correction =     0.000227

     Writing all to output data dir ./TMPDIR/pwscf.save/
 
     init_run     :      0.43s CPU      0.44s WALL (       1 calls)
     electrons    :      3.71s CPU      3.89s WALL (       1 calls)
     forces       :      0.16s CPU      0.16s WALL (       1 calls)

     Called by init_run:
     wfcinit      :      0.21s CPU      0.22s WALL (       1 calls)
     potinit      :      0.06s CPU      0.06s WALL (       1 calls)
     hinit0       :      0.13s CPU      0.13s WALL (       1 calls)

     Called by electrons:
     c_bands      :      3.11s CPU      3.21s WALL (       6 calls)
     sum_band     :      0.50s CPU      0.52s WALL (       6 calls)
     v_of_rho     :      0.07s CPU      0.07s WALL (       7 calls)
     newd         :      0.04s CPU      0.04s WALL (       7 calls)
     mix_rho      :      0.01s CPU      0.01s WALL (       6 calls)

     Called by c_bands:
     init_us_2    :      0.08s CPU      0.08s WALL (    1036 calls)
     init_us_2:cp :      0.08s CPU      0.08s WALL (    1036 calls)
     cegterg      :      2.96s CPU      3.06s WALL (     444 calls)

     Called by *egterg:
     cdiaghg      :      0.21s CPU      0.22s WALL (    2161 calls)
     h_psi        :      2.53s CPU      2.61s WALL (    2235 calls)
     s_psi        :      0.06s CPU      0.06s WALL (    2235 calls)
     g_psi        :      0.03s CPU      0.03s WALL (    1717 calls)

     Called by h_psi:
     h_psi:calbec :      0.11s CPU      0.11s WALL (    2235 calls)
     vloc_psi     :      2.34s CPU      2.42s WALL (    2235 calls)
     add_vuspsi   :      0.06s CPU      0.06s WALL (    2235 calls)

     General routines
     calbec       :      0.14s CPU      0.15s WALL (    2975 calls)
     fft          :      0.08s CPU      0.08s WALL (     100 calls)
     ffts         :      0.00s CPU      0.00s WALL (      13 calls)
     fftw         :      2.36s CPU      2.44s WALL (   26094 calls)
     interpolate  :      0.00s CPU      0.00s WALL (       7 calls)
 
     Parallel routines
 
     PWSCF        :      4.45s CPU      5.25s WALL

 
   This run was terminated on:  17:35:26  12Mar2024            

=------------------------------------------------------------------------------=
   JOB DONE.
=------------------------------------------------------------------------------=
