[0] MPI startup(): I_MPI_TCP_NETMASK variable has been removed from the product, its value is ignored


     Program PWSCF v.7.2 starts on 12Mar2024 at 17:26: 0 

     This program is part of the open-source Quantum ESPRESSO suite
     for quantum simulation of materials; please cite
         "P. Giannozzi et al., J. Phys.:Condens. Matter 21 395502 (2009);
         "P. Giannozzi et al., J. Phys.:Condens. Matter 29 465901 (2017);
         "P. Giannozzi et al., J. Chem. Phys. 152 154105 (2020);
          URL http://www.quantum-espresso.org", 
     in publications or presentations arising from this work. More details at
     http://www.quantum-espresso.org/quote

     Parallel version (MPI), running on    16 processors

     MPI processes distributed on     1 nodes
     31551 MiB available memory on the printing compute node when the environment starts
 
     Reading input from espresso.pwi
Warning: card &CELL ignored
Warning: card / ignored

     Current dimensions of program PWSCF are:
     Max number of different atomic species (ntypx) = 10
     Max number of k-points (npk) =  40000
     Max angular momentum in pseudopotentials (lmaxx) =  4
     Message from routine setup:
     using ibrav=0 with symmetry is DISCOURAGED, use correct ibrav instead
 
     R & G space division:  proc/nbgrp/npool/nimage =      16
     Subspace diagonalization in iterative solution of the eigenvalue problem:
     a serial algorithm will be used

 
     Parallelization info
     --------------------
     sticks:   dense  smooth     PW     G-vecs:    dense   smooth      PW
     Min          67      34     10                 7115     2515     444
     Max          68      36     11                 7126     2519     463
     Sum        1085     551    167               113933    40273    7201
 
     Using Slab Decomposition
 


     bravais-lattice index     =            0
     lattice parameter (alat)  =       5.6973  a.u.
     unit-cell volume          =     642.1518 (a.u.)^3
     number of atoms/cell      =            4
     number of atomic types    =            2
     number of electrons       =         8.00
     number of Kohn-Sham states=            8
     kinetic-energy cutoff     =      60.0000  Ry
     charge density cutoff     =     480.0000  Ry
     scf convergence threshold =      1.0E-06
     mixing beta               =       0.7000
     number of iterations used =            8  plain     mixing
     Exchange-correlation=  SLA  PW   PBX  PBC
                           (   1   4   3   4   0   0   0)

     celldm(1)=   5.697334  celldm(2)=   0.000000  celldm(3)=   0.000000
     celldm(4)=   0.000000  celldm(5)=   0.000000  celldm(6)=   0.000000

     crystal axes: (cart. coord. in units of alat)
               a(1) = (   0.999994  -0.003591   0.000000 )  
               a(2) = (   0.503167   0.875437   0.000000 )  
               a(3) = (   0.000000   0.000000   3.958265 )  

     reciprocal axes: (cart. coord. in units 2 pi/alat)
               b(1) = (  0.997946 -0.573581  0.000000 )  
               b(2) = (  0.004094  1.139933  0.000000 )  
               b(3) = (  0.000000  0.000000  0.252636 )  


     PseudoPot. # 1 for B  read from file:
     /home/krojas/QE/pseudo/b_pbe_v1.4.uspp.F.UPF
     MD5 check sum: cc6de2960df11db49a60e589f9ebb39b
     Pseudo is Ultrasoft + core correction, Zval =  3.0
     Generated by new atomic code, or converted to UPF format
     Using radial grid of  781 points,  4 beta functions with: 
                l(1) =   0
                l(2) =   0
                l(3) =   1
                l(4) =   1
     Q(r) pseudized with  8 coefficients,  rinner =    1.100   1.100   1.100


     PseudoPot. # 2 for H  read from file:
     /home/krojas/QE/pseudo/h_pbe_v1.4.uspp.F.UPF
     MD5 check sum: 761ae9a214b05c3daf00ab9f6b793d6f
     Pseudo is Ultrasoft, Zval =  1.0
     Generated by new atomic code, or converted to UPF format
     Using radial grid of  615 points,  2 beta functions with: 
                l(1) =   0
                l(2) =   0
     Q(r) pseudized with  8 coefficients,  rinner =    0.700

     atomic species   valence    mass     pseudopotential
        B              3.00    10.81000     B ( 1.00)
        H              1.00     1.00800     H ( 1.00)

      2 Sym. Ops. (no inversion) found



   Cartesian axes

     site n.     atom                  positions (alat units)
         1           B   tau(   1) = (   0.0000000   0.0033169   1.9791325  )
         2           B   tau(   2) = (   0.5009657   0.2715580   1.9791325  )
         3           H   tau(   3) = (   0.5020846   0.5735104   2.2998349  )
         4           H   tau(   4) = (   0.5020846   0.5735104   1.6584302  )

     number of k points=    74  Gaussian smearing, width (Ry)=  0.0100
                       cart. coord. in units 2pi/alat
        k(    1) = (   0.0000000   0.0000000   0.0000000), wk =   0.0138889
        k(    2) = (   0.0003412   0.0949944   0.0000000), wk =   0.0277778
        k(    3) = (   0.0006823   0.1899889   0.0000000), wk =   0.0277778
        k(    4) = (   0.0010235   0.2849833   0.0000000), wk =   0.0277778
        k(    5) = (   0.0013646   0.3799777   0.0000000), wk =   0.0277778
        k(    6) = (   0.0017058   0.4749722   0.0000000), wk =   0.0277778
        k(    7) = (  -0.0020470  -0.5699666   0.0000000), wk =   0.0138889
        k(    8) = (   0.0831622  -0.0477984   0.0000000), wk =   0.0277778
        k(    9) = (   0.0835034   0.0471960   0.0000000), wk =   0.0277778
        k(   10) = (   0.0838445   0.1421905   0.0000000), wk =   0.0277778
        k(   11) = (   0.0841857   0.2371849   0.0000000), wk =   0.0277778
        k(   12) = (   0.0845269   0.3321793   0.0000000), wk =   0.0277778
        k(   13) = (   0.0848680   0.4271738   0.0000000), wk =   0.0277778
        k(   14) = (   0.0811152  -0.6177650   0.0000000), wk =   0.0277778
        k(   15) = (   0.0814564  -0.5227706   0.0000000), wk =   0.0277778
        k(   16) = (   0.0817976  -0.4277762   0.0000000), wk =   0.0277778
        k(   17) = (   0.0821387  -0.3327817   0.0000000), wk =   0.0277778
        k(   18) = (   0.0824799  -0.2377873   0.0000000), wk =   0.0277778
        k(   19) = (   0.0828210  -0.1427928   0.0000000), wk =   0.0277778
        k(   20) = (   0.1663244  -0.0955968   0.0000000), wk =   0.0277778
        k(   21) = (   0.1666656  -0.0006024   0.0000000), wk =   0.0277778
        k(   22) = (   0.1670067   0.0943921   0.0000000), wk =   0.0277778
        k(   23) = (   0.1673479   0.1893865   0.0000000), wk =   0.0277778
        k(   24) = (   0.1676891   0.2843809   0.0000000), wk =   0.0277778
        k(   25) = (   0.1680302   0.3793754   0.0000000), wk =   0.0277778
        k(   26) = (   0.1642774  -0.6655634   0.0000000), wk =   0.0277778
        k(   27) = (   0.1646186  -0.5705690   0.0000000), wk =   0.0277778
        k(   28) = (   0.1649598  -0.4755746   0.0000000), wk =   0.0277778
        k(   29) = (   0.1653009  -0.3805801   0.0000000), wk =   0.0277778
        k(   30) = (   0.1656421  -0.2855857   0.0000000), wk =   0.0277778
        k(   31) = (   0.1659833  -0.1905913   0.0000000), wk =   0.0277778
        k(   32) = (   0.2494866  -0.1433952   0.0000000), wk =   0.0277778
        k(   33) = (   0.2498278  -0.0484008   0.0000000), wk =   0.0277778
        k(   34) = (   0.2501689   0.0465936   0.0000000), wk =   0.0277778
        k(   35) = (   0.2505101   0.1415881   0.0000000), wk =   0.0277778
        k(   36) = (   0.2508513   0.2365825   0.0000000), wk =   0.0277778
        k(   37) = (   0.2511924   0.3315769   0.0000000), wk =   0.0277778
        k(   38) = (   0.2474397  -0.7133618   0.0000000), wk =   0.0277778
        k(   39) = (   0.2477808  -0.6183674   0.0000000), wk =   0.0277778
        k(   40) = (   0.2481220  -0.5233730   0.0000000), wk =   0.0277778
        k(   41) = (   0.2484631  -0.4283785   0.0000000), wk =   0.0277778
        k(   42) = (   0.2488043  -0.3333841   0.0000000), wk =   0.0277778
        k(   43) = (   0.2491455  -0.2383897   0.0000000), wk =   0.0277778
        k(   44) = (   0.3326488  -0.1911936   0.0000000), wk =   0.0277778
        k(   45) = (   0.3329900  -0.0961992   0.0000000), wk =   0.0277778
        k(   46) = (   0.3333312  -0.0012048   0.0000000), wk =   0.0277778
        k(   47) = (   0.3336723   0.0937897   0.0000000), wk =   0.0277778
        k(   48) = (   0.3340135   0.1887841   0.0000000), wk =   0.0277778
        k(   49) = (   0.3343546   0.2837785   0.0000000), wk =   0.0277778
        k(   50) = (   0.3306019  -0.7611603   0.0000000), wk =   0.0277778
        k(   51) = (   0.3309430  -0.6661658   0.0000000), wk =   0.0277778
        k(   52) = (   0.3312842  -0.5711714   0.0000000), wk =   0.0277778
        k(   53) = (   0.3316253  -0.4761769   0.0000000), wk =   0.0277778
        k(   54) = (   0.3319665  -0.3811825   0.0000000), wk =   0.0277778
        k(   55) = (   0.3323077  -0.2861881   0.0000000), wk =   0.0277778
        k(   56) = (   0.4158110  -0.2389921   0.0000000), wk =   0.0277778
        k(   57) = (   0.4161522  -0.1439976   0.0000000), wk =   0.0277778
        k(   58) = (   0.4164934  -0.0490032   0.0000000), wk =   0.0277778
        k(   59) = (   0.4168345   0.0459913   0.0000000), wk =   0.0277778
        k(   60) = (   0.4171757   0.1409857   0.0000000), wk =   0.0277778
        k(   61) = (   0.4175169   0.2359801   0.0000000), wk =   0.0277778
        k(   62) = (   0.4137641  -0.8089587   0.0000000), wk =   0.0277778
        k(   63) = (   0.4141052  -0.7139642   0.0000000), wk =   0.0277778
        k(   64) = (   0.4144464  -0.6189698   0.0000000), wk =   0.0277778
        k(   65) = (   0.4147876  -0.5239754   0.0000000), wk =   0.0277778
        k(   66) = (   0.4151287  -0.4289809   0.0000000), wk =   0.0277778
        k(   67) = (   0.4154699  -0.3339865   0.0000000), wk =   0.0277778
        k(   68) = (  -0.4989732   0.2867905   0.0000000), wk =   0.0138889
        k(   69) = (  -0.4986321   0.3817849   0.0000000), wk =   0.0277778
        k(   70) = (  -0.4982909   0.4767793   0.0000000), wk =   0.0277778
        k(   71) = (  -0.4979498   0.5717738   0.0000000), wk =   0.0277778
        k(   72) = (  -0.4976086   0.6667682   0.0000000), wk =   0.0277778
        k(   73) = (  -0.4972674   0.7617626   0.0000000), wk =   0.0277778
        k(   74) = (  -0.5010202  -0.2831762   0.0000000), wk =   0.0138889

     Dense  grid:   113933 G-vectors     FFT dimensions: (  40,  45, 160)

     Smooth grid:    40273 G-vectors     FFT dimensions: (  30,  30, 120)

     Estimated max dynamical RAM per process >      13.53 MB

     Estimated total dynamical RAM >     216.40 MB

     Initial potential from superposition of free atoms

     starting charge       7.9994, renormalised to       8.0000

     negative rho (up, down):  1.270E-05 0.000E+00
     Starting wfcs are   10 randomized atomic wfcs

     total cpu time spent up to now is        0.5 secs

     Self-consistent Calculation

     iteration #  1     ecut=    60.00 Ry     beta= 0.70
     Davidson diagonalization with overlap
     ethr =  1.00E-02,  avg # of iterations =  3.8

     negative rho (up, down):  1.222E-05 0.000E+00

     total cpu time spent up to now is        1.2 secs

     total energy              =     -15.01338156 Ry
     estimated scf accuracy    <       0.32343911 Ry

     iteration #  2     ecut=    60.00 Ry     beta= 0.70
     Davidson diagonalization with overlap
     ethr =  4.04E-03,  avg # of iterations =  3.5

     negative rho (up, down):  2.153E-05 0.000E+00

     total cpu time spent up to now is        1.9 secs

     total energy              =     -15.06598922 Ry
     estimated scf accuracy    <       0.01756716 Ry

     iteration #  3     ecut=    60.00 Ry     beta= 0.70
     Davidson diagonalization with overlap
     ethr =  2.20E-04,  avg # of iterations =  5.5

     negative rho (up, down):  3.126E-05 0.000E+00

     total cpu time spent up to now is        2.6 secs

     total energy              =     -15.06898187 Ry
     estimated scf accuracy    <       0.00052342 Ry

     iteration #  4     ecut=    60.00 Ry     beta= 0.70
     Davidson diagonalization with overlap
     c_bands:  1 eigenvalues not converged
     c_bands:  1 eigenvalues not converged
     ethr =  6.54E-06,  avg # of iterations =  6.0

     negative rho (up, down):  3.344E-05 0.000E+00

     total cpu time spent up to now is        3.4 secs

     total energy              =     -15.06906209 Ry
     estimated scf accuracy    <       0.00000532 Ry

     iteration #  5     ecut=    60.00 Ry     beta= 0.70
     Davidson diagonalization with overlap
     ethr =  6.65E-08,  avg # of iterations =  3.1

     negative rho (up, down):  3.404E-05 0.000E+00

     total cpu time spent up to now is        4.0 secs

     End of self-consistent calculation

          k = 0.0000 0.0000 0.0000 (  5017 PWs)   bands (ev):

   -14.4543  -8.7258  -2.9404  -0.5989   0.9756   2.3928   3.0097   5.5410

          k = 0.0003 0.0950 0.0000 (  4979 PWs)   bands (ev):

   -14.3548  -8.6074  -3.3382  -0.8436   1.0960   2.5348   3.1337   5.6779

          k = 0.0007 0.1900 0.0000 (  4988 PWs)   bands (ev):

   -14.0611  -8.2571  -4.3498  -1.4062   1.4736   2.9394   3.5160   4.0340

          k = 0.0010 0.2850 0.0000 (  5020 PWs)   bands (ev):

   -13.5908  -7.6940  -5.6407  -2.0193   1.9946   2.1082   3.7313   4.1292

          k = 0.0014 0.3800 0.0000 (  5038 PWs)   bands (ev):

   -12.9891  -6.9675  -6.9409  -2.5242   0.2491   2.9366   4.7153   4.7167

          k = 0.0017 0.4750 0.0000 (  5038 PWs)   bands (ev):

   -12.3797  -8.0065  -6.2197  -2.8476  -1.1284   3.6768   5.1322   5.9787

          k =-0.0020-0.5700 0.0000 (  5036 PWs)   bands (ev):

   -12.0805  -8.4633  -5.8440  -2.9583  -1.7163   3.8930   5.9222   6.5362

          k = 0.0832-0.0478 0.0000 (  5007 PWs)   bands (ev):

   -14.3550  -8.6245  -3.2257  -0.9852   1.1108   2.5349   3.1499   5.6279

          k = 0.0835 0.0472 0.0000 (  5007 PWs)   bands (ev):

   -14.3550  -8.6245  -3.2258  -0.9851   1.1108   2.5350   3.1499   5.6282

          k = 0.0838 0.1422 0.0000 (  5003 PWs)   bands (ev):

   -14.1586  -8.3918  -3.9344  -1.3858   1.3600   2.8112   3.4048   4.9158

          k = 0.0842 0.2372 0.0000 (  5010 PWs)   bands (ev):

   -13.7766  -7.9381  -5.0537  -2.0233   1.8732   2.8336   3.5138   3.9229

          k = 0.0845 0.3322 0.0000 (  5029 PWs)   bands (ev):

   -13.2379  -7.2955  -6.3110  -2.6433   1.0950   2.6315   4.2912   4.6455

          k = 0.0849 0.4272 0.0000 (  5030 PWs)   bands (ev):

   -12.6177  -7.4804  -6.5487  -3.0994  -0.4496   3.5323   5.2367   5.4070

          k = 0.0811-0.6178 0.0000 (  5055 PWs)   bands (ev):

   -12.1211  -8.2708  -5.9410  -3.3360  -1.4646   4.1782   5.8199   6.7288

          k = 0.0815-0.5228 0.0000 (  5055 PWs)   bands (ev):

   -12.1211  -8.2708  -5.9410  -3.3360  -1.4646   4.1782   5.8199   7.0415

          k = 0.0818-0.4278 0.0000 (  5030 PWs)   bands (ev):

   -12.6177  -7.4805  -6.5487  -3.0993  -0.4497   3.5323   5.2367   5.4072

          k = 0.0821-0.3328 0.0000 (  5029 PWs)   bands (ev):

   -13.2379  -7.2955  -6.3111  -2.6433   1.0950   2.6315   4.2912   4.6455

          k = 0.0825-0.2378 0.0000 (  5010 PWs)   bands (ev):

   -13.7766  -7.9381  -5.0538  -2.0233   1.8732   2.8336   3.5138   3.9227

          k = 0.0828-0.1428 0.0000 (  5003 PWs)   bands (ev):

   -14.1586  -8.3918  -3.9344  -1.3858   1.3600   2.8112   3.4049   4.9159

          k = 0.1663-0.0956 0.0000 (  5007 PWs)   bands (ev):

   -14.0633  -8.3304  -4.0027  -1.8456   1.5227   2.9491   3.5747   5.3796

          k = 0.1667-0.0006 0.0000 (  4991 PWs)   bands (ev):

   -14.1597  -8.4426  -3.6354  -1.7611   1.3961   2.8174   3.4457   5.9307

          k = 0.1670 0.0944 0.0000 (  5007 PWs)   bands (ev):

   -14.0633  -8.3304  -4.0028  -1.8454   1.5227   2.9491   3.5746   5.3794

          k = 0.1673 0.1894 0.0000 (  5031 PWs)   bands (ev):

   -13.7797  -8.0002  -4.8354  -2.2977   1.9076   3.1867   3.8334   3.9663

          k = 0.1677 0.2844 0.0000 (  5037 PWs)   bands (ev):

   -13.3290  -7.4751  -5.8479  -3.0295   1.8639   2.5554   4.1693   4.6291

          k = 0.1680 0.3794 0.0000 (  5046 PWs)   bands (ev):

   -12.7610  -6.8947  -6.8123  -3.7056   0.3575   3.4326   5.1079   5.5013

          k = 0.1643-0.6656 0.0000 (  5071 PWs)   bands (ev):

   -12.2023  -7.7818  -6.1586  -4.1421  -0.8232   4.4010   6.2181   6.2752

          k = 0.1646-0.5706 0.0000 (  5067 PWs)   bands (ev):

   -11.9381  -8.1633  -5.8489  -4.2897  -1.3117   4.9219   6.9245   7.0360

          k = 0.1650-0.4756 0.0000 (  5071 PWs)   bands (ev):

   -12.2022  -7.7819  -6.1586  -4.1421  -0.8232   4.4011   6.2182   6.2752

          k = 0.1653-0.3806 0.0000 (  5048 PWs)   bands (ev):

   -12.7609  -6.8948  -6.8122  -3.7055   0.3575   3.4327   5.1081   5.5016

          k = 0.1656-0.2856 0.0000 (  5037 PWs)   bands (ev):

   -13.3289  -7.4750  -5.8479  -3.0295   1.8639   2.5555   4.1693   4.6289

          k = 0.1660-0.1906 0.0000 (  5031 PWs)   bands (ev):

   -13.7796  -8.0002  -4.8354  -2.2978   1.9076   3.1868   3.8335   3.9662

          k = 0.2495-0.1434 0.0000 (  5031 PWs)   bands (ev):

   -13.6014  -7.8783  -5.1064  -2.7088   2.2124   3.3656   4.1364   4.2800

          k = 0.2498-0.0484 0.0000 (  5026 PWs)   bands (ev):

   -13.7826  -8.0818  -4.4643  -2.7561   1.9540   3.3585   4.0224   5.1821

          k = 0.2502 0.0466 0.0000 (  5026 PWs)   bands (ev):

   -13.7827  -8.0818  -4.4644  -2.7560   1.9540   3.3585   4.0222   5.1819

          k = 0.2505 0.1416 0.0000 (  5031 PWs)   bands (ev):

   -13.6015  -7.8783  -5.1065  -2.7086   2.2123   3.3654   4.1363   4.2793

          k = 0.2509 0.2366 0.0000 (  5038 PWs)   bands (ev):

   -13.2537  -7.4886  -5.8851  -3.1785   2.2856   2.7270   4.3666   4.7897

          k = 0.2512 0.3316 0.0000 (  5053 PWs)   bands (ev):

   -12.7772  -6.9570  -6.6284  -4.0154   1.0258   3.4919   5.1247   5.5971

          k = 0.2474-0.7134 0.0000 (  5056 PWs)   bands (ev):

   -12.2578  -7.2829  -6.3815  -4.7924  -0.0470   4.4422   5.9439   6.5807

          k = 0.2478-0.6184 0.0000 (  5062 PWs)   bands (ev):

   -11.8773  -7.7248  -5.9638  -5.2296  -0.7163   5.3157   6.1705   7.2796

          k = 0.2481-0.5234 0.0000 (  5062 PWs)   bands (ev):

   -11.8773  -7.7248  -5.9638  -5.2295  -0.7163   5.3157   6.1704   7.2795

          k = 0.2485-0.4284 0.0000 (  5056 PWs)   bands (ev):

   -12.2577  -7.2830  -6.3814  -4.7924  -0.0470   4.4424   5.9440   6.5808

          k = 0.2488-0.3334 0.0000 (  5053 PWs)   bands (ev):

   -12.7771  -6.9569  -6.6285  -4.0155   1.0258   3.4921   5.1247   5.5974

          k = 0.2491-0.2384 0.0000 (  5038 PWs)   bands (ev):

   -13.2536  -7.4886  -5.8850  -3.1787   2.2858   2.7271   4.3667   4.7896

          k = 0.3326-0.1912 0.0000 (  5036 PWs)   bands (ev):

   -13.0245  -7.3439  -6.3036  -3.3520   2.2834   3.1619   4.7671   4.8158

          k = 0.3330-0.0962 0.0000 (  5043 PWs)   bands (ev):

   -13.2599  -7.5912  -5.5888  -3.5433   2.7798   3.3460   4.3944   4.8758

          k = 0.3333-0.0012 0.0000 (  5043 PWs)   bands (ev):

   -13.3416  -7.6772  -5.1315  -3.8748   2.6490   4.0090   4.2174   4.7439

          k = 0.3337 0.0938 0.0000 (  5043 PWs)   bands (ev):

   -13.2600  -7.5912  -5.5890  -3.5430   2.7797   3.3458   4.3943   4.8757

          k = 0.3340 0.1888 0.0000 (  5036 PWs)   bands (ev):

   -13.0245  -7.3440  -6.3037  -3.3516   2.2832   3.1618   4.7678   4.8157

          k = 0.3344 0.2838 0.0000 (  5056 PWs)   bands (ev):

   -12.6683  -6.9722  -6.8964  -3.8142   1.3196   3.7800   5.1565   5.4728

          k = 0.3306-0.7612 0.0000 (  5051 PWs)   bands (ev):

   -12.2602  -7.2571  -6.5483  -4.7179   0.5617   4.6033   6.0816   6.3608

          k = 0.3309-0.6662 0.0000 (  5056 PWs)   bands (ev):

   -11.9174  -7.3373  -6.1919  -5.6238   0.0620   5.4389   5.7249   7.4347

          k = 0.3313-0.5712 0.0000 (  5049 PWs)   bands (ev):

   -11.7804  -7.2702  -6.0606  -6.0485  -0.1168   5.4499   5.8140   7.8289

          k = 0.3316-0.4762 0.0000 (  5056 PWs)   bands (ev):

   -11.9173  -7.3373  -6.1919  -5.6239   0.0620   5.4391   5.7248   7.4348

          k = 0.3320-0.3812 0.0000 (  5051 PWs)   bands (ev):

   -12.2600  -7.2571  -6.5482  -4.7181   0.5617   4.6035   6.0816   6.3601

          k = 0.3323-0.2862 0.0000 (  5056 PWs)   bands (ev):

   -12.6682  -6.9721  -6.8963  -3.8145   1.3197   3.7802   5.1558   5.4729

          k = 0.4158-0.2390 0.0000 (  5035 PWs)   bands (ev):

   -12.4672  -7.2941  -6.8728  -3.7371   1.2768   4.2892   4.5910   6.0629

          k = 0.4162-0.1440 0.0000 (  5059 PWs)   bands (ev):

   -12.6775  -7.0690  -6.7250  -4.0237   2.0021   3.8405   5.1989   5.3958

          k = 0.4165-0.0490 0.0000 (  5060 PWs)   bands (ev):

   -12.7979  -7.1809  -6.0198  -4.7049   2.7953   3.5897   4.8110   5.7294

          k = 0.4168 0.0460 0.0000 (  5060 PWs)   bands (ev):

   -12.7979  -7.1809  -6.0200  -4.7047   2.7952   3.5897   4.8111   5.7295

          k = 0.4172 0.1410 0.0000 (  5059 PWs)   bands (ev):

   -12.6775  -7.0690  -6.7252  -4.0234   2.0018   3.8404   5.1995   5.3958

          k = 0.4175 0.2360 0.0000 (  5035 PWs)   bands (ev):

   -12.4673  -7.2942  -6.8729  -3.7367   1.2766   4.2891   4.5916   6.0628

          k = 0.4138-0.8090 0.0000 (  5051 PWs)   bands (ev):

   -12.2291  -7.5579  -6.6447  -4.1603   0.8356   4.8426   5.1241   6.7238

          k = 0.4141-0.7140 0.0000 (  5056 PWs)   bands (ev):

   -12.0388  -7.4330  -6.4490  -5.0626   0.6994   5.4049   5.9874   6.3222

          k = 0.4144-0.6190 0.0000 (  5053 PWs)   bands (ev):

   -11.9420  -6.9149  -6.3384  -6.0547   0.7428   5.1681   5.5195   7.6006

          k = 0.4148-0.5240 0.0000 (  5053 PWs)   bands (ev):

   -11.9419  -6.9148  -6.3384  -6.0548   0.7429   5.1680   5.5195   7.6008

          k = 0.4151-0.4290 0.0000 (  5056 PWs)   bands (ev):

   -12.0387  -7.4330  -6.4489  -5.0629   0.6995   5.4050   5.9872   6.3215

          k = 0.4155-0.3340 0.0000 (  5051 PWs)   bands (ev):

   -12.2290  -7.5578  -6.6446  -4.1606   0.8358   4.8425   5.1237   6.7238

          k =-0.4990 0.2868 0.0000 (  5038 PWs)   bands (ev):

   -12.2102  -7.7046  -6.6754  -3.8651   0.8916   4.4820   5.1656   6.6875

          k =-0.4986 0.3818 0.0000 (  5049 PWs)   bands (ev):

   -12.2346  -7.5018  -6.6873  -4.2270   1.0695   4.9600   5.0424   6.5723

          k =-0.4983 0.4768 0.0000 (  5054 PWs)   bands (ev):

   -12.2813  -6.9415  -6.7108  -5.0643   1.5054   4.6935   5.4880   6.3931

          k =-0.4979 0.5718 0.0000 (  5075 PWs)   bands (ev):

   -12.3038  -6.7224  -6.3166  -5.8120   1.7947   4.5877   4.9370   6.7944

          k =-0.4976 0.6668 0.0000 (  5054 PWs)   bands (ev):

   -12.2814  -6.9417  -6.7109  -5.0640   1.5052   4.6934   5.4882   6.3937

          k =-0.4973 0.7618 0.0000 (  5049 PWs)   bands (ev):

   -12.2347  -7.5019  -6.6874  -4.2267   1.0693   4.9598   5.0430   6.5724

          k =-0.5010-0.2832 0.0000 (  5038 PWs)   bands (ev):

   -12.2104  -7.7047  -6.6755  -3.8647   0.8915   4.4826   5.1654   6.6875

     the Fermi energy is    -1.2070 ev

!    total energy              =     -15.06906502 Ry
     estimated scf accuracy    <       0.00000031 Ry
     smearing contrib. (-TS)   =      -0.00015201 Ry
     internal energy E=F+TS    =     -15.06891302 Ry

     The total energy is F=E-TS. E is the sum of the following terms:
     one-electron contribution =     -65.64534081 Ry
     hartree contribution      =      34.40293257 Ry
     xc contribution           =      -7.29894142 Ry
     ewald contribution        =      23.47243665 Ry

     convergence has been achieved in   5 iterations

     negative rho (up, down):  3.404E-05 0.000E+00

     Forces acting on atoms (cartesian axes, Ry/au):

     atom    1 type  1   force =    -0.00003835   -0.00953483    0.00000000
     atom    2 type  1   force =     0.00003369    0.00661267    0.00000000
     atom    3 type  2   force =     0.00000233    0.00146108   -0.00117148
     atom    4 type  2   force =     0.00000233    0.00146108    0.00117148
     The non-local contrib.  to forces
     atom    1 type  1   force =    -0.00126265   -0.35407276    0.00000000
     atom    2 type  1   force =     0.00127274    0.34885055    0.00000000
     atom    3 type  2   force =    -0.00001170   -0.00055099   -0.10964347
     atom    4 type  2   force =    -0.00001170   -0.00055099    0.10964347
     The ionic contribution  to forces
     atom    1 type  1   force =     0.00239063    0.66733279    0.00000000
     atom    2 type  1   force =    -0.00255551   -0.67809385    0.00000000
     atom    3 type  2   force =     0.00008244    0.00538053    2.56729038
     atom    4 type  2   force =     0.00008244    0.00538053   -2.56729038
     The local contribution  to forces
     atom    1 type  1   force =    -0.00119564   -0.33059054    0.00000000
     atom    2 type  1   force =     0.00134449    0.34338533    0.00000000
     atom    3 type  2   force =    -0.00006871   -0.00335456   -2.45877681
     atom    4 type  2   force =    -0.00006871   -0.00335456    2.45877681
     The core correction contribution to forces
     atom    1 type  1   force =     0.00002680    0.00759069   -0.00000000
     atom    2 type  1   force =    -0.00002656   -0.00732776   -0.00000000
     atom    3 type  2   force =     0.00000000    0.00000000    0.00000000
     atom    4 type  2   force =     0.00000000    0.00000000    0.00000000
     The Hubbard contrib.    to forces
     atom    1 type  1   force =     0.00000000    0.00000000    0.00000000
     atom    2 type  1   force =     0.00000000    0.00000000    0.00000000
     atom    3 type  2   force =     0.00000000    0.00000000    0.00000000
     atom    4 type  2   force =     0.00000000    0.00000000    0.00000000
     The SCF correction term to forces
     atom    1 type  1   force =     0.00000248    0.00020566    0.00000000
     atom    2 type  1   force =    -0.00000149   -0.00020092    0.00000000
     atom    3 type  2   force =     0.00000029   -0.00001323   -0.00004159
     atom    4 type  2   force =     0.00000029   -0.00001323    0.00004159

     Total force =     0.011902     Total SCF correction =     0.000294

     Writing all to output data dir ./TMPDIR/pwscf.save/
 
     init_run     :      0.44s CPU      0.45s WALL (       1 calls)
     electrons    :      3.34s CPU      3.52s WALL (       1 calls)
     forces       :      0.14s CPU      0.15s WALL (       1 calls)

     Called by init_run:
     wfcinit      :      0.22s CPU      0.22s WALL (       1 calls)
     potinit      :      0.06s CPU      0.07s WALL (       1 calls)
     hinit0       :      0.13s CPU      0.13s WALL (       1 calls)

     Called by electrons:
     c_bands      :      2.78s CPU      2.89s WALL (       5 calls)
     sum_band     :      0.46s CPU      0.47s WALL (       5 calls)
     v_of_rho     :      0.07s CPU      0.07s WALL (       6 calls)
     newd         :      0.03s CPU      0.04s WALL (       6 calls)
     mix_rho      :      0.00s CPU      0.00s WALL (       5 calls)

     Called by c_bands:
     init_us_2    :      0.07s CPU      0.07s WALL (     888 calls)
     init_us_2:cp :      0.07s CPU      0.07s WALL (     888 calls)
     cegterg      :      2.67s CPU      2.76s WALL (     370 calls)

     Called by *egterg:
     cdiaghg      :      0.20s CPU      0.21s WALL (    1993 calls)
     h_psi        :      2.27s CPU      2.36s WALL (    2067 calls)
     s_psi        :      0.05s CPU      0.05s WALL (    2067 calls)
     g_psi        :      0.02s CPU      0.02s WALL (    1623 calls)

     Called by h_psi:
     h_psi:calbec :      0.10s CPU      0.10s WALL (    2067 calls)
     vloc_psi     :      2.10s CPU      2.17s WALL (    2067 calls)
     add_vuspsi   :      0.05s CPU      0.06s WALL (    2067 calls)

     General routines
     calbec       :      0.13s CPU      0.14s WALL (    2733 calls)
     fft          :      0.08s CPU      0.08s WALL (      87 calls)
     ffts         :      0.00s CPU      0.00s WALL (      11 calls)
     fftw         :      2.13s CPU      2.20s WALL (   23116 calls)
     interpolate  :      0.00s CPU      0.00s WALL (       6 calls)
 
     Parallel routines
 
     PWSCF        :      4.07s CPU      4.99s WALL

 
   This run was terminated on:  17:26: 5  12Mar2024            

=------------------------------------------------------------------------------=
   JOB DONE.
=------------------------------------------------------------------------------=
