[0] MPI startup(): I_MPI_TCP_NETMASK variable has been removed from the product, its value is ignored


     Program PWSCF v.7.2 starts on 12Mar2024 at 16:51:44 

     This program is part of the open-source Quantum ESPRESSO suite
     for quantum simulation of materials; please cite
         "P. Giannozzi et al., J. Phys.:Condens. Matter 21 395502 (2009);
         "P. Giannozzi et al., J. Phys.:Condens. Matter 29 465901 (2017);
         "P. Giannozzi et al., J. Chem. Phys. 152 154105 (2020);
          URL http://www.quantum-espresso.org", 
     in publications or presentations arising from this work. More details at
     http://www.quantum-espresso.org/quote

     Parallel version (MPI), running on    16 processors

     MPI processes distributed on     1 nodes
     29014 MiB available memory on the printing compute node when the environment starts
 
     Reading input from espresso.pwi
Warning: card &CELL ignored
Warning: card / ignored

     Current dimensions of program PWSCF are:
     Max number of different atomic species (ntypx) = 10
     Max number of k-points (npk) =  40000
     Max angular momentum in pseudopotentials (lmaxx) =  4
     Message from routine setup:
     using ibrav=0 with symmetry is DISCOURAGED, use correct ibrav instead
 
     R & G space division:  proc/nbgrp/npool/nimage =      16
     Subspace diagonalization in iterative solution of the eigenvalue problem:
     a serial algorithm will be used

 
     Parallelization info
     --------------------
     sticks:   dense  smooth     PW     G-vecs:    dense   smooth      PW
     Min         852     426    106                74904    26480    3306
     Max         853     427    107                74907    26483    3309
     Sum       13637    6817   1701              1198487   423701   52923
 
     Using Slab Decomposition
 


     bravais-lattice index     =            0
     lattice parameter (alat)  =      18.8973  a.u.
     unit-cell volume          =    6748.3345 (a.u.)^3
     number of atoms/cell      =            3
     number of atomic types    =            2
     number of electrons       =         8.00
     number of Kohn-Sham states=            8
     kinetic-energy cutoff     =      60.0000  Ry
     charge density cutoff     =     480.0000  Ry
     scf convergence threshold =      1.0E-06
     mixing beta               =       0.7000
     number of iterations used =            8  plain     mixing
     Exchange-correlation=  SLA  PW   PBX  PBC
                           (   1   4   3   4   0   0   0)

     celldm(1)=  18.897261  celldm(2)=   0.000000  celldm(3)=   0.000000
     celldm(4)=   0.000000  celldm(5)=   0.000000  celldm(6)=   0.000000

     crystal axes: (cart. coord. in units of alat)
               a(1) = (   1.000000   0.000000   0.000000 )  
               a(2) = (   0.000000   1.000000   0.000000 )  
               a(3) = (   0.000000   0.000000   1.000000 )  

     reciprocal axes: (cart. coord. in units 2 pi/alat)
               b(1) = (  1.000000  0.000000  0.000000 )  
               b(2) = (  0.000000  1.000000  0.000000 )  
               b(3) = (  0.000000  0.000000  1.000000 )  


     PseudoPot. # 1 for O  read from file:
     /home/krojas/share/lib/qe_pseudo/gbrv/o_pbe_v1.2.uspp.F.UPF
     MD5 check sum: 734c27235a0248c51dbae37a1fbe46ec
     Pseudo is Ultrasoft + core correction, Zval =  6.0
     Generated by new atomic code, or converted to UPF format
     Using radial grid of  737 points,  5 beta functions with: 
                l(1) =   0
                l(2) =   0
                l(3) =   1
                l(4) =   1
                l(5) =   2
     Q(r) pseudized with  8 coefficients,  rinner =    0.900   0.900   0.900
                                                       0.900   0.900

     PseudoPot. # 2 for H  read from file:
     /home/krojas/share/lib/qe_pseudo/gbrv/h_pbe_v1.4.uspp.F.UPF
     MD5 check sum: 761ae9a214b05c3daf00ab9f6b793d6f
     Pseudo is Ultrasoft, Zval =  1.0
     Generated by new atomic code, or converted to UPF format
     Using radial grid of  615 points,  2 beta functions with: 
                l(1) =   0
                l(2) =   0
     Q(r) pseudized with  8 coefficients,  rinner =    0.700

     atomic species   valence    mass     pseudopotential
        O              6.00    15.99900     O ( 1.00)
        H              1.00     1.00800     H ( 1.00)

      4 Sym. Ops. (no inversion) found



   Cartesian axes

     site n.     atom                  positions (alat units)
         1           O   tau(   1) = (   0.5000000   0.5000000   0.5304606  )
         2           H   tau(   2) = (   0.5000000   0.5769636   0.4698620  )
         3           H   tau(   3) = (   0.5000000   0.4230364   0.4698620  )

     number of k points=     1  Gaussian smearing, width (Ry)=  0.0100
                       cart. coord. in units 2pi/alat
        k(    1) = (   0.0000000   0.0000000   0.0000000), wk =   2.0000000

     Dense  grid:  1198487 G-vectors     FFT dimensions: ( 135, 135, 135)

     Smooth grid:   423701 G-vectors     FFT dimensions: (  96,  96,  96)

     Estimated max dynamical RAM per process >     174.40 MB

     Estimated total dynamical RAM >       2.73 GB

     Initial potential from superposition of free atoms

     starting charge       8.0000, renormalised to       8.0000

     negative rho (up, down):  1.614E-04 0.000E+00
     Starting wfcs are    6 randomized atomic wfcs +    2 random wfcs

     total cpu time spent up to now is        1.2 secs

     Self-consistent Calculation

     iteration #  1     ecut=    60.00 Ry     beta= 0.70
     Davidson diagonalization with overlap
     ethr =  1.00E-02,  avg # of iterations =  8.0

     negative rho (up, down):  7.805E-04 0.000E+00

     total cpu time spent up to now is        2.0 secs

     total energy              =     -34.47415423 Ry
     estimated scf accuracy    <       0.45687168 Ry

     iteration #  2     ecut=    60.00 Ry     beta= 0.70
     Davidson diagonalization with overlap
     ethr =  5.71E-03,  avg # of iterations =  2.0

     negative rho (up, down):  6.888E-04 0.000E+00

     total cpu time spent up to now is        2.7 secs

     total energy              =     -34.57946969 Ry
     estimated scf accuracy    <       0.47232835 Ry

     iteration #  3     ecut=    60.00 Ry     beta= 0.70
     Davidson diagonalization with overlap
     ethr =  5.71E-03,  avg # of iterations =  2.0

     negative rho (up, down):  1.146E-03 0.000E+00

     total cpu time spent up to now is        3.5 secs

     total energy              =     -34.66688879 Ry
     estimated scf accuracy    <       0.00390896 Ry

     iteration #  4     ecut=    60.00 Ry     beta= 0.70
     Davidson diagonalization with overlap
     ethr =  4.89E-05,  avg # of iterations =  5.0

     negative rho (up, down):  1.067E-03 0.000E+00

     total cpu time spent up to now is        4.3 secs

     total energy              =     -34.66775871 Ry
     estimated scf accuracy    <       0.00133078 Ry

     iteration #  5     ecut=    60.00 Ry     beta= 0.70
     Davidson diagonalization with overlap
     ethr =  1.66E-05,  avg # of iterations =  2.0

     negative rho (up, down):  1.077E-03 0.000E+00

     total cpu time spent up to now is        5.0 secs

     total energy              =     -34.66765292 Ry
     estimated scf accuracy    <       0.00025289 Ry

     iteration #  6     ecut=    60.00 Ry     beta= 0.70
     Davidson diagonalization with overlap
     ethr =  3.16E-06,  avg # of iterations = 12.0

     negative rho (up, down):  1.086E-03 0.000E+00

     total cpu time spent up to now is        5.8 secs

     total energy              =     -34.66772377 Ry
     estimated scf accuracy    <       0.00005930 Ry

     iteration #  7     ecut=    60.00 Ry     beta= 0.70
     Davidson diagonalization with overlap
     ethr =  7.41E-07,  avg # of iterations =  2.0

     negative rho (up, down):  1.095E-03 0.000E+00

     total cpu time spent up to now is        6.6 secs

     total energy              =     -34.66773673 Ry
     estimated scf accuracy    <       0.00000143 Ry

     iteration #  8     ecut=    60.00 Ry     beta= 0.70
     Davidson diagonalization with overlap
     ethr =  1.78E-08,  avg # of iterations =  2.0

     negative rho (up, down):  1.094E-03 0.000E+00

     total cpu time spent up to now is        7.3 secs

     End of self-consistent calculation

          k = 0.0000 0.0000 0.0000 ( 52923 PWs)   bands (ev):

   -25.0500 -12.8484  -9.2281  -7.1055  -1.0013   0.3411   0.7071   1.0410

     the Fermi energy is    -4.8014 ev

!    total energy              =     -34.66773688 Ry
     estimated scf accuracy    <       0.00000002 Ry
     smearing contrib. (-TS)   =      -0.00000000 Ry
     internal energy E=F+TS    =     -34.66773688 Ry

     The total energy is F=E-TS. E is the sum of the following terms:
     one-electron contribution =     -63.13526753 Ry
     hartree contribution      =      33.07176103 Ry
     xc contribution           =      -8.67864474 Ry
     ewald contribution        =       4.07441436 Ry

     convergence has been achieved in   8 iterations

     negative rho (up, down):  1.094E-03 0.000E+00

     Forces acting on atoms (cartesian axes, Ry/au):

     atom    1 type  1   force =     0.00000000    0.00000000    0.00024926
     atom    2 type  2   force =     0.00000000    0.00031298   -0.00012463
     atom    3 type  2   force =     0.00000000   -0.00031298   -0.00012463
     The non-local contrib.  to forces
     atom    1 type  1   force =     0.00000000    0.00000000   -2.17237475
     atom    2 type  2   force =     0.00000000   -0.19514510    0.14207318
     atom    3 type  2   force =     0.00000000    0.19514510    0.14207318
     The ionic contribution  to forces
     atom    1 type  1   force =    -0.00000000   -0.00000000    4.31601228
     atom    2 type  2   force =    -0.00000000    2.97311226   -2.15800614
     atom    3 type  2   force =     0.00000000   -2.97311226   -2.15800614
     The local contribution  to forces
     atom    1 type  1   force =     0.00000000    0.00000000   -2.15479811
     atom    2 type  2   force =     0.00000000   -2.77767953    2.01591148
     atom    3 type  2   force =     0.00000000    2.77767953    2.01591148
     The core correction contribution to forces
     atom    1 type  1   force =    -0.00000000    0.00000000    0.01157637
     atom    2 type  2   force =     0.00000000    0.00000000    0.00000000
     atom    3 type  2   force =     0.00000000    0.00000000    0.00000000
     The Hubbard contrib.    to forces
     atom    1 type  1   force =     0.00000000    0.00000000    0.00000000
     atom    2 type  2   force =     0.00000000    0.00000000    0.00000000
     atom    3 type  2   force =     0.00000000    0.00000000    0.00000000
     The SCF correction term to forces
     atom    1 type  1   force =    -0.00000000    0.00000000   -0.00010100
     atom    2 type  2   force =    -0.00000000    0.00002535   -0.00003761
     atom    3 type  2   force =    -0.00000000   -0.00002535   -0.00003761

     Total force =     0.000538     Total SCF correction =     0.000120
     SCF correction compared to forces is large: reduce conv_thr to get better values

     Writing all to output data dir TMPDIR/pwscf.save/
 
     init_run     :      0.94s CPU      1.07s WALL (       1 calls)
     electrons    :      5.50s CPU      6.51s WALL (       1 calls)
     forces       :      0.49s CPU      0.56s WALL (       1 calls)

     Called by init_run:
     wfcinit      :      0.02s CPU      0.02s WALL (       1 calls)
     potinit      :      0.20s CPU      0.22s WALL (       1 calls)
     hinit0       :      0.17s CPU      0.19s WALL (       1 calls)

     Called by electrons:
     c_bands      :      0.59s CPU      0.61s WALL (       8 calls)
     sum_band     :      2.16s CPU      2.47s WALL (       8 calls)
     v_of_rho     :      1.21s CPU      1.28s WALL (       9 calls)
     newd         :      1.42s CPU      1.78s WALL (       9 calls)
     mix_rho      :      0.22s CPU      0.22s WALL (       8 calls)

     Called by c_bands:
     init_us_2    :      0.02s CPU      0.02s WALL (      17 calls)
     init_us_2:cp :      0.02s CPU      0.02s WALL (      17 calls)
     cegterg      :      0.56s CPU      0.58s WALL (       8 calls)

     Called by *egterg:
     cdiaghg      :      0.01s CPU      0.01s WALL (      43 calls)
     h_psi        :      0.50s CPU      0.52s WALL (      44 calls)
     s_psi        :      0.01s CPU      0.01s WALL (      44 calls)
     g_psi        :      0.00s CPU      0.00s WALL (      35 calls)

     Called by h_psi:
     h_psi:calbec :      0.02s CPU      0.02s WALL (      44 calls)
     vloc_psi     :      0.46s CPU      0.48s WALL (      44 calls)
     add_vuspsi   :      0.01s CPU      0.01s WALL (      44 calls)

     General routines
     calbec       :      0.03s CPU      0.03s WALL (      56 calls)
     fft          :      1.11s CPU      1.18s WALL (     126 calls)
     ffts         :      0.02s CPU      0.02s WALL (      17 calls)
     fftw         :      0.32s CPU      0.34s WALL (     484 calls)
     interpolate  :      0.10s CPU      0.10s WALL (       9 calls)
 
     Parallel routines
 
     PWSCF        :      7.06s CPU      8.68s WALL

 
   This run was terminated on:  16:51:52  12Mar2024            

=------------------------------------------------------------------------------=
   JOB DONE.
=------------------------------------------------------------------------------=
