[0] MPI startup(): I_MPI_TCP_NETMASK variable has been removed from the product, its value is ignored


     Program PWSCF v.7.2 starts on 12Mar2024 at 17:33:21 

     This program is part of the open-source Quantum ESPRESSO suite
     for quantum simulation of materials; please cite
         "P. Giannozzi et al., J. Phys.:Condens. Matter 21 395502 (2009);
         "P. Giannozzi et al., J. Phys.:Condens. Matter 29 465901 (2017);
         "P. Giannozzi et al., J. Chem. Phys. 152 154105 (2020);
          URL http://www.quantum-espresso.org", 
     in publications or presentations arising from this work. More details at
     http://www.quantum-espresso.org/quote

     Parallel version (MPI), running on    16 processors

     MPI processes distributed on     1 nodes
     31542 MiB available memory on the printing compute node when the environment starts
 
     Reading input from espresso.pwi
Warning: card &CELL ignored
Warning: card / ignored

     Current dimensions of program PWSCF are:
     Max number of different atomic species (ntypx) = 10
     Max number of k-points (npk) =  40000
     Max angular momentum in pseudopotentials (lmaxx) =  4
 
     R & G space division:  proc/nbgrp/npool/nimage =      16
     Subspace diagonalization in iterative solution of the eigenvalue problem:
     a serial algorithm will be used

 
     Parallelization info
     --------------------
     sticks:   dense  smooth     PW     G-vecs:    dense   smooth      PW
     Min          67      34     10                 7115     2515     444
     Max          68      36     11                 7126     2519     463
     Sum        1085     551    167               113933    40273    7201
 
     Using Slab Decomposition
 


     bravais-lattice index     =            0
     lattice parameter (alat)  =       5.6973  a.u.
     unit-cell volume          =     642.1518 (a.u.)^3
     number of atoms/cell      =            4
     number of atomic types    =            2
     number of electrons       =         8.00
     number of Kohn-Sham states=            8
     kinetic-energy cutoff     =      60.0000  Ry
     charge density cutoff     =     480.0000  Ry
     scf convergence threshold =      1.0E-06
     mixing beta               =       0.7000
     number of iterations used =            8  plain     mixing
     Exchange-correlation=  SLA  PW   PBX  PBC
                           (   1   4   3   4   0   0   0)

     celldm(1)=   5.697334  celldm(2)=   0.000000  celldm(3)=   0.000000
     celldm(4)=   0.000000  celldm(5)=   0.000000  celldm(6)=   0.000000

     crystal axes: (cart. coord. in units of alat)
               a(1) = (   0.999994  -0.003591   0.000000 )  
               a(2) = (   0.503167   0.875437   0.000000 )  
               a(3) = (   0.000000   0.000000   3.958265 )  

     reciprocal axes: (cart. coord. in units 2 pi/alat)
               b(1) = (  0.997946 -0.573581  0.000000 )  
               b(2) = (  0.004094  1.139933  0.000000 )  
               b(3) = (  0.000000  0.000000  0.252636 )  


     PseudoPot. # 1 for B  read from file:
     /home/krojas/QE/pseudo/b_pbe_v1.4.uspp.F.UPF
     MD5 check sum: cc6de2960df11db49a60e589f9ebb39b
     Pseudo is Ultrasoft + core correction, Zval =  3.0
     Generated by new atomic code, or converted to UPF format
     Using radial grid of  781 points,  4 beta functions with: 
                l(1) =   0
                l(2) =   0
                l(3) =   1
                l(4) =   1
     Q(r) pseudized with  8 coefficients,  rinner =    1.100   1.100   1.100


     PseudoPot. # 2 for H  read from file:
     /home/krojas/QE/pseudo/h_pbe_v1.4.uspp.F.UPF
     MD5 check sum: 761ae9a214b05c3daf00ab9f6b793d6f
     Pseudo is Ultrasoft, Zval =  1.0
     Generated by new atomic code, or converted to UPF format
     Using radial grid of  615 points,  2 beta functions with: 
                l(1) =   0
                l(2) =   0
     Q(r) pseudized with  8 coefficients,  rinner =    0.700

     atomic species   valence    mass     pseudopotential
        B              3.00    10.81000     B ( 1.00)
        H              1.00     1.00800     H ( 1.00)

     No symmetry found



   Cartesian axes

     site n.     atom                  positions (alat units)
         1           B   tau(   1) = (   0.0000000   0.0000000   1.9791325  )
         2           B   tau(   2) = (   0.5009657   0.2715580   1.9791325  )
         3           H   tau(   3) = (   0.5020846   0.5701935   2.2998349  )
         4           H   tau(   4) = (   0.5020846   0.5735104   1.6584302  )

     number of k points=    74  Gaussian smearing, width (Ry)=  0.0100
                       cart. coord. in units 2pi/alat
        k(    1) = (   0.0000000   0.0000000   0.0000000), wk =   0.0138889
        k(    2) = (   0.0003412   0.0949944   0.0000000), wk =   0.0277778
        k(    3) = (   0.0006823   0.1899889   0.0000000), wk =   0.0277778
        k(    4) = (   0.0010235   0.2849833   0.0000000), wk =   0.0277778
        k(    5) = (   0.0013646   0.3799777   0.0000000), wk =   0.0277778
        k(    6) = (   0.0017058   0.4749722   0.0000000), wk =   0.0277778
        k(    7) = (  -0.0020470  -0.5699666   0.0000000), wk =   0.0138889
        k(    8) = (   0.0831622  -0.0477984   0.0000000), wk =   0.0277778
        k(    9) = (   0.0835034   0.0471960   0.0000000), wk =   0.0277778
        k(   10) = (   0.0838445   0.1421905   0.0000000), wk =   0.0277778
        k(   11) = (   0.0841857   0.2371849   0.0000000), wk =   0.0277778
        k(   12) = (   0.0845269   0.3321793   0.0000000), wk =   0.0277778
        k(   13) = (   0.0848680   0.4271738   0.0000000), wk =   0.0277778
        k(   14) = (   0.0811152  -0.6177650   0.0000000), wk =   0.0277778
        k(   15) = (   0.0814564  -0.5227706   0.0000000), wk =   0.0277778
        k(   16) = (   0.0817976  -0.4277762   0.0000000), wk =   0.0277778
        k(   17) = (   0.0821387  -0.3327817   0.0000000), wk =   0.0277778
        k(   18) = (   0.0824799  -0.2377873   0.0000000), wk =   0.0277778
        k(   19) = (   0.0828210  -0.1427928   0.0000000), wk =   0.0277778
        k(   20) = (   0.1663244  -0.0955968   0.0000000), wk =   0.0277778
        k(   21) = (   0.1666656  -0.0006024   0.0000000), wk =   0.0277778
        k(   22) = (   0.1670067   0.0943921   0.0000000), wk =   0.0277778
        k(   23) = (   0.1673479   0.1893865   0.0000000), wk =   0.0277778
        k(   24) = (   0.1676891   0.2843809   0.0000000), wk =   0.0277778
        k(   25) = (   0.1680302   0.3793754   0.0000000), wk =   0.0277778
        k(   26) = (   0.1642774  -0.6655634   0.0000000), wk =   0.0277778
        k(   27) = (   0.1646186  -0.5705690   0.0000000), wk =   0.0277778
        k(   28) = (   0.1649598  -0.4755746   0.0000000), wk =   0.0277778
        k(   29) = (   0.1653009  -0.3805801   0.0000000), wk =   0.0277778
        k(   30) = (   0.1656421  -0.2855857   0.0000000), wk =   0.0277778
        k(   31) = (   0.1659833  -0.1905913   0.0000000), wk =   0.0277778
        k(   32) = (   0.2494866  -0.1433952   0.0000000), wk =   0.0277778
        k(   33) = (   0.2498278  -0.0484008   0.0000000), wk =   0.0277778
        k(   34) = (   0.2501689   0.0465936   0.0000000), wk =   0.0277778
        k(   35) = (   0.2505101   0.1415881   0.0000000), wk =   0.0277778
        k(   36) = (   0.2508513   0.2365825   0.0000000), wk =   0.0277778
        k(   37) = (   0.2511924   0.3315769   0.0000000), wk =   0.0277778
        k(   38) = (   0.2474397  -0.7133618   0.0000000), wk =   0.0277778
        k(   39) = (   0.2477808  -0.6183674   0.0000000), wk =   0.0277778
        k(   40) = (   0.2481220  -0.5233730   0.0000000), wk =   0.0277778
        k(   41) = (   0.2484631  -0.4283785   0.0000000), wk =   0.0277778
        k(   42) = (   0.2488043  -0.3333841   0.0000000), wk =   0.0277778
        k(   43) = (   0.2491455  -0.2383897   0.0000000), wk =   0.0277778
        k(   44) = (   0.3326488  -0.1911936   0.0000000), wk =   0.0277778
        k(   45) = (   0.3329900  -0.0961992   0.0000000), wk =   0.0277778
        k(   46) = (   0.3333312  -0.0012048   0.0000000), wk =   0.0277778
        k(   47) = (   0.3336723   0.0937897   0.0000000), wk =   0.0277778
        k(   48) = (   0.3340135   0.1887841   0.0000000), wk =   0.0277778
        k(   49) = (   0.3343546   0.2837785   0.0000000), wk =   0.0277778
        k(   50) = (   0.3306019  -0.7611603   0.0000000), wk =   0.0277778
        k(   51) = (   0.3309430  -0.6661658   0.0000000), wk =   0.0277778
        k(   52) = (   0.3312842  -0.5711714   0.0000000), wk =   0.0277778
        k(   53) = (   0.3316253  -0.4761769   0.0000000), wk =   0.0277778
        k(   54) = (   0.3319665  -0.3811825   0.0000000), wk =   0.0277778
        k(   55) = (   0.3323077  -0.2861881   0.0000000), wk =   0.0277778
        k(   56) = (   0.4158110  -0.2389921   0.0000000), wk =   0.0277778
        k(   57) = (   0.4161522  -0.1439976   0.0000000), wk =   0.0277778
        k(   58) = (   0.4164934  -0.0490032   0.0000000), wk =   0.0277778
        k(   59) = (   0.4168345   0.0459913   0.0000000), wk =   0.0277778
        k(   60) = (   0.4171757   0.1409857   0.0000000), wk =   0.0277778
        k(   61) = (   0.4175169   0.2359801   0.0000000), wk =   0.0277778
        k(   62) = (   0.4137641  -0.8089587   0.0000000), wk =   0.0277778
        k(   63) = (   0.4141052  -0.7139642   0.0000000), wk =   0.0277778
        k(   64) = (   0.4144464  -0.6189698   0.0000000), wk =   0.0277778
        k(   65) = (   0.4147876  -0.5239754   0.0000000), wk =   0.0277778
        k(   66) = (   0.4151287  -0.4289809   0.0000000), wk =   0.0277778
        k(   67) = (   0.4154699  -0.3339865   0.0000000), wk =   0.0277778
        k(   68) = (  -0.4989732   0.2867905   0.0000000), wk =   0.0138889
        k(   69) = (  -0.4986321   0.3817849   0.0000000), wk =   0.0277778
        k(   70) = (  -0.4982909   0.4767793   0.0000000), wk =   0.0277778
        k(   71) = (  -0.4979498   0.5717738   0.0000000), wk =   0.0277778
        k(   72) = (  -0.4976086   0.6667682   0.0000000), wk =   0.0277778
        k(   73) = (  -0.4972674   0.7617626   0.0000000), wk =   0.0277778
        k(   74) = (  -0.5010202  -0.2831762   0.0000000), wk =   0.0138889

     Dense  grid:   113933 G-vectors     FFT dimensions: (  40,  45, 160)

     Smooth grid:    40273 G-vectors     FFT dimensions: (  30,  30, 120)

     Estimated max dynamical RAM per process >      13.53 MB

     Estimated total dynamical RAM >     216.40 MB

     Initial potential from superposition of free atoms

     starting charge       7.9994, renormalised to       8.0000

     negative rho (up, down):  1.265E-05 0.000E+00
     Starting wfcs are   10 randomized atomic wfcs

     total cpu time spent up to now is        0.5 secs

     Self-consistent Calculation

     iteration #  1     ecut=    60.00 Ry     beta= 0.70
     Davidson diagonalization with overlap
     ethr =  1.00E-02,  avg # of iterations =  3.8

     negative rho (up, down):  1.228E-05 0.000E+00

     total cpu time spent up to now is        1.2 secs

     total energy              =     -15.01297224 Ry
     estimated scf accuracy    <       0.32455113 Ry

     iteration #  2     ecut=    60.00 Ry     beta= 0.70
     Davidson diagonalization with overlap
     ethr =  4.06E-03,  avg # of iterations =  3.5

     negative rho (up, down):  2.161E-05 0.000E+00

     total cpu time spent up to now is        1.9 secs

     total energy              =     -15.06604937 Ry
     estimated scf accuracy    <       0.01760019 Ry

     iteration #  3     ecut=    60.00 Ry     beta= 0.70
     Davidson diagonalization with overlap
     ethr =  2.20E-04,  avg # of iterations =  5.2

     negative rho (up, down):  3.145E-05 0.000E+00

     total cpu time spent up to now is        2.5 secs

     total energy              =     -15.06904177 Ry
     estimated scf accuracy    <       0.00052526 Ry

     iteration #  4     ecut=    60.00 Ry     beta= 0.70
     Davidson diagonalization with overlap
     ethr =  6.57E-06,  avg # of iterations =  6.3

     negative rho (up, down):  3.364E-05 0.000E+00

     total cpu time spent up to now is        3.3 secs

     total energy              =     -15.06912230 Ry
     estimated scf accuracy    <       0.00000534 Ry

     iteration #  5     ecut=    60.00 Ry     beta= 0.70
     Davidson diagonalization with overlap
     ethr =  6.68E-08,  avg # of iterations =  3.0

     negative rho (up, down):  3.426E-05 0.000E+00

     total cpu time spent up to now is        3.9 secs

     End of self-consistent calculation

          k = 0.0000 0.0000 0.0000 (  5017 PWs)   bands (ev):

   -14.4658  -8.7458  -2.9746  -0.5136   0.9715   2.3890   3.0050   5.6565

          k = 0.0003 0.0950 0.0000 (  4979 PWs)   bands (ev):

   -14.3669  -8.6279  -3.3670  -0.7657   1.0932   2.5306   3.1302   5.7786

          k = 0.0007 0.1900 0.0000 (  4988 PWs)   bands (ev):

   -14.0751  -8.2793  -4.3668  -1.3417   1.4728   2.9326   3.5147   4.0466

          k = 0.0010 0.2850 0.0000 (  5020 PWs)   bands (ev):

   -13.6085  -7.7196  -5.6448  -1.9655   2.0019   2.1105   3.7319   4.1319

          k = 0.0014 0.3800 0.0000 (  5038 PWs)   bands (ev):

   -13.0131  -7.0057  -6.9260  -2.4771   0.2662   2.9401   4.7154   4.7320

          k = 0.0017 0.4750 0.0000 (  5038 PWs)   bands (ev):

   -12.4136  -7.9852  -6.2608  -2.8041  -1.1008   3.6891   5.1462   5.9769

          k =-0.0020-0.5700 0.0000 (  5036 PWs)   bands (ev):

   -12.1216  -8.4336  -5.8932  -2.9159  -1.6806   3.9120   5.9273   6.5376

          k = 0.0832-0.0478 0.0000 (  5007 PWs)   bands (ev):

   -14.3670  -8.6450  -3.2567  -0.9063   1.1073   2.5308   3.1456   5.7228

          k = 0.0835 0.0472 0.0000 (  5007 PWs)   bands (ev):

   -14.3670  -8.6450  -3.2568  -0.9062   1.1073   2.5309   3.1457   5.7233

          k = 0.0838 0.1422 0.0000 (  5003 PWs)   bands (ev):

   -14.1719  -8.4135  -3.9559  -1.3184   1.3582   2.8061   3.4021   4.9249

          k = 0.0842 0.2372 0.0000 (  5010 PWs)   bands (ev):

   -13.7925  -7.9623  -5.0634  -1.9673   1.8731   2.8340   3.5213   3.9228

          k = 0.0845 0.3322 0.0000 (  5029 PWs)   bands (ev):

   -13.2588  -7.3245  -6.3082  -2.5953   1.1083   2.6329   4.2906   4.6504

          k = 0.0849 0.4272 0.0000 (  5030 PWs)   bands (ev):

   -12.6467  -7.4657  -6.5846  -3.0562  -0.4273   3.5368   5.2555   5.4059

          k = 0.0811-0.6178 0.0000 (  5055 PWs)   bands (ev):

   -12.1603  -8.2432  -5.9878  -3.2952  -1.4313   4.1915   5.8322   6.7283

          k = 0.0815-0.5228 0.0000 (  5055 PWs)   bands (ev):

   -12.1603  -8.2432  -5.9878  -3.2952  -1.4313   4.1915   5.8323   7.0423

          k = 0.0818-0.4278 0.0000 (  5030 PWs)   bands (ev):

   -12.6467  -7.4657  -6.5846  -3.0562  -0.4273   3.5368   5.2554   5.4060

          k = 0.0821-0.3328 0.0000 (  5029 PWs)   bands (ev):

   -13.2587  -7.3245  -6.3082  -2.5953   1.1084   2.6330   4.2906   4.6503

          k = 0.0825-0.2378 0.0000 (  5010 PWs)   bands (ev):

   -13.7925  -7.9623  -5.0633  -1.9674   1.8731   2.8341   3.5214   3.9226

          k = 0.0828-0.1428 0.0000 (  5003 PWs)   bands (ev):

   -14.1718  -8.4135  -3.9558  -1.3186   1.3582   2.8061   3.4022   4.9250

          k = 0.1663-0.0956 0.0000 (  5007 PWs)   bands (ev):

   -14.0766  -8.3527  -4.0230  -1.7823   1.5202   2.9440   3.5711   5.3867

          k = 0.1667-0.0006 0.0000 (  4991 PWs)   bands (ev):

   -14.1724  -8.4643  -3.6637  -1.6892   1.3930   2.8130   3.4414   6.0403

          k = 0.1670 0.0944 0.0000 (  5007 PWs)   bands (ev):

   -14.0767  -8.3527  -4.0232  -1.7819   1.5202   2.9440   3.5710   5.3863

          k = 0.1673 0.1894 0.0000 (  5031 PWs)   bands (ev):

   -13.7951  -8.0244  -4.8454  -2.2449   1.9066   3.1790   3.8486   3.9654

          k = 0.1677 0.2844 0.0000 (  5037 PWs)   bands (ev):

   -13.3483  -7.5028  -5.8483  -2.9835   1.8749   2.5560   4.1703   4.6292

          k = 0.1680 0.3794 0.0000 (  5046 PWs)   bands (ev):

   -12.7869  -6.8937  -6.8364  -3.6643   0.3766   3.4337   5.1080   5.5049

          k = 0.1643-0.6656 0.0000 (  5071 PWs)   bands (ev):

   -12.2379  -7.7585  -6.2011  -4.1040  -0.7944   4.4033   6.2206   6.2893

          k = 0.1646-0.5706 0.0000 (  5067 PWs)   bands (ev):

   -11.9803  -8.1322  -5.8977  -4.2527  -1.2765   4.9265   6.9275   7.0583

          k = 0.1650-0.4756 0.0000 (  5071 PWs)   bands (ev):

   -12.2378  -7.7586  -6.2011  -4.1040  -0.7944   4.4033   6.2207   6.2893

          k = 0.1653-0.3806 0.0000 (  5048 PWs)   bands (ev):

   -12.7869  -6.8937  -6.8363  -3.6643   0.3767   3.4338   5.1080   5.5052

          k = 0.1656-0.2856 0.0000 (  5037 PWs)   bands (ev):

   -13.3482  -7.5028  -5.8482  -2.9837   1.8751   2.5560   4.1703   4.6292

          k = 0.1660-0.1906 0.0000 (  5031 PWs)   bands (ev):

   -13.7951  -8.0244  -4.8452  -2.2453   1.9066   3.1791   3.8488   3.9654

          k = 0.2495-0.1434 0.0000 (  5031 PWs)   bands (ev):

   -13.6175  -7.9037  -5.1102  -2.6640   2.2106   3.3619   4.1507   4.2778

          k = 0.2498-0.0484 0.0000 (  5026 PWs)   bands (ev):

   -13.7973  -8.1060  -4.4818  -2.6977   1.9517   3.3528   4.0183   5.1966

          k = 0.2502 0.0466 0.0000 (  5026 PWs)   bands (ev):

   -13.7973  -8.1060  -4.4821  -2.6974   1.9517   3.3528   4.0182   5.1963

          k = 0.2505 0.1416 0.0000 (  5031 PWs)   bands (ev):

   -13.6175  -7.9038  -5.1106  -2.6634   2.2105   3.3617   4.1505   4.2779

          k = 0.2509 0.2366 0.0000 (  5038 PWs)   bands (ev):

   -13.2729  -7.5169  -5.8808  -3.1400   2.2974   2.7268   4.3688   4.7920

          k = 0.2512 0.3316 0.0000 (  5053 PWs)   bands (ev):

   -12.8018  -6.9906  -6.6161  -3.9792   1.0443   3.4924   5.1262   5.5997

          k = 0.2474-0.7134 0.0000 (  5056 PWs)   bands (ev):

   -12.2906  -7.2623  -6.4207  -4.7576  -0.0210   4.4421   5.9517   6.5826

          k = 0.2478-0.6184 0.0000 (  5062 PWs)   bands (ev):

   -11.9186  -7.6939  -6.0103  -5.1961  -0.6831   5.3129   6.1898   7.2848

          k = 0.2481-0.5234 0.0000 (  5062 PWs)   bands (ev):

   -11.9185  -7.6939  -6.0102  -5.1962  -0.6830   5.3130   6.1898   7.2848

          k = 0.2485-0.4284 0.0000 (  5056 PWs)   bands (ev):

   -12.2905  -7.2622  -6.4206  -4.7577  -0.0209   4.4422   5.9517   6.5827

          k = 0.2488-0.3334 0.0000 (  5053 PWs)   bands (ev):

   -12.8018  -6.9906  -6.6160  -3.9795   1.0445   3.4925   5.1264   5.5997

          k = 0.2491-0.2384 0.0000 (  5038 PWs)   bands (ev):

   -13.2729  -7.5169  -5.8805  -3.1405   2.2977   2.7269   4.3689   4.7919

          k = 0.3326-0.1912 0.0000 (  5036 PWs)   bands (ev):

   -13.0451  -7.3741  -6.2920  -3.3209   2.3007   3.1606   4.7920   4.8163

          k = 0.3330-0.0962 0.0000 (  5043 PWs)   bands (ev):

   -13.2781  -7.6192  -5.5877  -3.5032   2.7778   3.3583   4.3973   4.8726

          k = 0.3333-0.0012 0.0000 (  5043 PWs)   bands (ev):

   -13.3590  -7.7046  -5.1455  -3.8200   2.6472   4.0020   4.2381   4.7401

          k = 0.3337 0.0938 0.0000 (  5043 PWs)   bands (ev):

   -13.2781  -7.6192  -5.5881  -3.5026   2.7778   3.3578   4.3972   4.8716

          k = 0.3340 0.1888 0.0000 (  5036 PWs)   bands (ev):

   -13.0452  -7.3741  -6.2923  -3.3202   2.3002   3.1604   4.7928   4.8162

          k = 0.3344 0.2838 0.0000 (  5056 PWs)   bands (ev):

   -12.6935  -7.0073  -6.8767  -3.7859   1.3407   3.7803   5.1828   5.4739

          k = 0.3306-0.7612 0.0000 (  5051 PWs)   bands (ev):

   -12.2917  -7.2329  -6.5861  -4.6897   0.5877   4.6036   6.0922   6.3905

          k = 0.3309-0.6662 0.0000 (  5056 PWs)   bands (ev):

   -11.9557  -7.3063  -6.2349  -5.5952   0.0930   5.4355   5.7455   7.4366

          k = 0.3313-0.5712 0.0000 (  5049 PWs)   bands (ev):

   -11.8218  -7.2351  -6.0936  -6.0330  -0.0834   5.4709   5.8070   7.8498

          k = 0.3316-0.4762 0.0000 (  5056 PWs)   bands (ev):

   -11.9556  -7.3061  -6.2349  -5.5955   0.0932   5.4357   5.7454   7.4368

          k = 0.3320-0.3812 0.0000 (  5051 PWs)   bands (ev):

   -12.2916  -7.2327  -6.5861  -4.6902   0.5880   4.6038   6.0921   6.3896

          k = 0.3323-0.2862 0.0000 (  5056 PWs)   bands (ev):

   -12.6934  -7.0073  -6.8763  -3.7865   1.3411   3.7805   5.1819   5.4740

          k = 0.4158-0.2390 0.0000 (  5035 PWs)   bands (ev):

   -12.4945  -7.2710  -6.9074  -3.7131   1.3023   4.2895   4.6120   6.0611

          k = 0.4162-0.1440 0.0000 (  5059 PWs)   bands (ev):

   -12.7015  -7.1023  -6.7077  -3.9956   2.0258   3.8385   5.2241   5.3924

          k = 0.4165-0.0490 0.0000 (  5060 PWs)   bands (ev):

   -12.8202  -7.2127  -6.0160  -4.6647   2.8200   3.5885   4.8051   5.7250

          k = 0.4168 0.0460 0.0000 (  5060 PWs)   bands (ev):

   -12.8202  -7.2127  -6.0164  -4.6643   2.8197   3.5885   4.8052   5.7251

          k = 0.4172 0.1410 0.0000 (  5059 PWs)   bands (ev):

   -12.7016  -7.1023  -6.7081  -3.9950   2.0253   3.8384   5.2249   5.3924

          k = 0.4175 0.2360 0.0000 (  5035 PWs)   bands (ev):

   -12.4946  -7.2713  -6.9075  -3.7124   1.3018   4.2895   4.6128   6.0610

          k = 0.4138-0.8090 0.0000 (  5051 PWs)   bands (ev):

   -12.2606  -7.5299  -6.6822  -4.1369   0.8633   4.8565   5.1308   6.7301

          k = 0.4141-0.7140 0.0000 (  5056 PWs)   bands (ev):

   -12.0736  -7.4025  -6.4889  -5.0380   0.7294   5.4035   6.0033   6.3462

          k = 0.4144-0.6190 0.0000 (  5053 PWs)   bands (ev):

   -11.9782  -6.8839  -6.3798  -6.0288   0.7743   5.1841   5.5158   7.6036

          k = 0.4148-0.5240 0.0000 (  5053 PWs)   bands (ev):

   -11.9781  -6.8835  -6.3797  -6.0292   0.7744   5.1839   5.5158   7.6038

          k = 0.4151-0.4290 0.0000 (  5056 PWs)   bands (ev):

   -12.0735  -7.4022  -6.4889  -5.0386   0.7297   5.4037   6.0030   6.3453

          k = 0.4155-0.3340 0.0000 (  5051 PWs)   bands (ev):

   -12.2605  -7.5296  -6.6822  -4.1375   0.8637   4.8564   5.1302   6.7300

          k =-0.4990 0.2868 0.0000 (  5038 PWs)   bands (ev):

   -12.2419  -7.6753  -6.7129  -3.8432   0.9204   4.5054   5.1600   6.6901

          k =-0.4986 0.3818 0.0000 (  5049 PWs)   bands (ev):

   -12.2654  -7.4742  -6.7245  -4.2039   1.0982   4.9604   5.0628   6.5703

          k =-0.4983 0.4768 0.0000 (  5054 PWs)   bands (ev):

   -12.3108  -6.9195  -6.7470  -5.0370   1.5341   4.6918   5.4918   6.4243

          k =-0.4979 0.5718 0.0000 (  5075 PWs)   bands (ev):

   -12.3326  -6.7593  -6.3099  -5.7687   1.8240   4.5864   4.9423   6.7880

          k =-0.4976 0.6668 0.0000 (  5054 PWs)   bands (ev):

   -12.3108  -6.9199  -6.7470  -5.0364   1.5338   4.6917   5.4920   6.4252

          k =-0.4973 0.7618 0.0000 (  5049 PWs)   bands (ev):

   -12.2656  -7.4745  -6.7246  -4.2033   1.0977   4.9602   5.0636   6.5704

          k =-0.5010-0.2832 0.0000 (  5038 PWs)   bands (ev):

   -12.2420  -7.6756  -6.7130  -3.8425   0.9199   4.5061   5.1598   6.6900

     the Fermi energy is    -1.1635 ev

!    total energy              =     -15.06912505 Ry
     estimated scf accuracy    <       0.00000060 Ry
     smearing contrib. (-TS)   =      -0.00016737 Ry
     internal energy E=F+TS    =     -15.06895768 Ry

     The total energy is F=E-TS. E is the sum of the following terms:
     one-electron contribution =     -65.66873249 Ry
     hartree contribution      =      34.41501349 Ry
     xc contribution           =      -7.30064812 Ry
     ewald contribution        =      23.48540944 Ry

     convergence has been achieved in   5 iterations

     negative rho (up, down):  3.426E-05 0.000E+00

     Forces acting on atoms (cartesian axes, Ry/au):

     atom    1 type  1   force =    -0.00004333   -0.00199782    0.00106069
     atom    2 type  1   force =     0.00003707   -0.00098917   -0.00107811
     atom    3 type  2   force =     0.00000963    0.00363541   -0.00000500
     atom    4 type  2   force =    -0.00000337   -0.00064842    0.00002242
     The non-local contrib.  to forces
     atom    1 type  1   force =    -0.00128687   -0.34736529    0.00259909
     atom    2 type  1   force =     0.00129369    0.34210634   -0.00286693
     atom    3 type  2   force =    -0.00001620   -0.00102309   -0.11092801
     atom    4 type  2   force =    -0.00000733   -0.00006754    0.11093738
     The ionic contribution  to forces
     atom    1 type  1   force =     0.00240018    0.68993893    0.00928788
     atom    2 type  1   force =    -0.00256699   -0.70063481   -0.00946379
     atom    3 type  2   force =     0.00011906    0.01039954    2.57674988
     atom    4 type  2   force =     0.00004775    0.00029635   -2.57657398
     The local contribution  to forces
     atom    1 type  1   force =    -0.00118814   -0.35203951   -0.00983499
     atom    2 type  1   force =     0.00133944    0.36474150    0.01193803
     atom    3 type  2   force =    -0.00009386   -0.00572575   -2.46560305
     atom    4 type  2   force =    -0.00004450   -0.00086274    2.46579489
     The core correction contribution to forces
     atom    1 type  1   force =     0.00002781    0.00727324   -0.00014618
     atom    2 type  1   force =    -0.00002708   -0.00701011    0.00016139
     atom    3 type  2   force =     0.00000000    0.00000000    0.00000000
     atom    4 type  2   force =     0.00000000    0.00000000    0.00000000
     The Hubbard contrib.    to forces
     atom    1 type  1   force =     0.00000000    0.00000000    0.00000000
     atom    2 type  1   force =     0.00000000    0.00000000    0.00000000
     atom    3 type  2   force =     0.00000000    0.00000000    0.00000000
     atom    4 type  2   force =     0.00000000    0.00000000    0.00000000
     The SCF correction term to forces
     atom    1 type  1   force =     0.00000325    0.00019562   -0.00080523
     atom    2 type  1   force =    -0.00000241   -0.00019127   -0.00080694
     atom    3 type  2   force =     0.00000020   -0.00001447   -0.00018395
     atom    4 type  2   force =     0.00000027   -0.00001368   -0.00009599

     Total force =     0.004571     Total SCF correction =     0.001191
     SCF correction compared to forces is large: reduce conv_thr to get better values

     Writing all to output data dir ./TMPDIR/pwscf.save/
 
     init_run     :      0.42s CPU      0.44s WALL (       1 calls)
     electrons    :      3.27s CPU      3.45s WALL (       1 calls)
     forces       :      0.14s CPU      0.15s WALL (       1 calls)

     Called by init_run:
     wfcinit      :      0.20s CPU      0.21s WALL (       1 calls)
     potinit      :      0.06s CPU      0.06s WALL (       1 calls)
     hinit0       :      0.13s CPU      0.14s WALL (       1 calls)

     Called by electrons:
     c_bands      :      2.76s CPU      2.88s WALL (       5 calls)
     sum_band     :      0.43s CPU      0.45s WALL (       5 calls)
     v_of_rho     :      0.06s CPU      0.06s WALL (       6 calls)
     newd         :      0.03s CPU      0.04s WALL (       6 calls)
     mix_rho      :      0.00s CPU      0.00s WALL (       5 calls)

     Called by c_bands:
     init_us_2    :      0.07s CPU      0.07s WALL (     888 calls)
     init_us_2:cp :      0.07s CPU      0.07s WALL (     888 calls)
     cegterg      :      2.64s CPU      2.75s WALL (     370 calls)

     Called by *egterg:
     cdiaghg      :      0.20s CPU      0.21s WALL (    1993 calls)
     h_psi        :      2.26s CPU      2.36s WALL (    2067 calls)
     s_psi        :      0.05s CPU      0.05s WALL (    2067 calls)
     g_psi        :      0.02s CPU      0.02s WALL (    1623 calls)

     Called by h_psi:
     h_psi:calbec :      0.09s CPU      0.10s WALL (    2067 calls)
     vloc_psi     :      2.09s CPU      2.18s WALL (    2067 calls)
     add_vuspsi   :      0.05s CPU      0.06s WALL (    2067 calls)

     General routines
     calbec       :      0.13s CPU      0.14s WALL (    2733 calls)
     fft          :      0.07s CPU      0.07s WALL (      87 calls)
     ffts         :      0.00s CPU      0.00s WALL (      11 calls)
     fftw         :      2.10s CPU      2.18s WALL (   23134 calls)
     interpolate  :      0.00s CPU      0.00s WALL (       6 calls)
 
     Parallel routines
 
     PWSCF        :      3.98s CPU      4.82s WALL

 
   This run was terminated on:  17:33:26  12Mar2024            

=------------------------------------------------------------------------------=
   JOB DONE.
=------------------------------------------------------------------------------=
