
     Program PWSCF v.7.2 starts on  8Nov2023 at 17:18:23 

     This program is part of the open-source Quantum ESPRESSO suite
     for quantum simulation of materials; please cite
         "P. Giannozzi et al., J. Phys.:Condens. Matter 21 395502 (2009);
         "P. Giannozzi et al., J. Phys.:Condens. Matter 29 465901 (2017);
         "P. Giannozzi et al., J. Chem. Phys. 152 154105 (2020);
          URL http://www.quantum-espresso.org", 
     in publications or presentations arising from this work. More details at
     http://www.quantum-espresso.org/quote

     Parallel version (MPI), running on     4 processors

     MPI processes distributed on     1 nodes
     9249 MiB available memory on the printing compute node when the environment starts
 
     Reading input from espresso.pwi
Warning: card &CELL ignored
Warning: card / ignored

     Current dimensions of program PWSCF are:
     Max number of different atomic species (ntypx) = 10
     Max number of k-points (npk) =  40000
     Max angular momentum in pseudopotentials (lmaxx) =  4
     Presently no symmetry can be used with electric field

 
     R & G space division:  proc/nbgrp/npool/nimage =       4
     Subspace diagonalization in iterative solution of the eigenvalue problem:
     a serial algorithm will be used

 
     Parallelization info
     --------------------
     sticks:   dense  smooth     PW     G-vecs:    dense   smooth      PW
     Min        7666    3832    958              1011072   357408   44730
     Max        7670    3833    959              1011073   357411   44733
     Sum       30669   15329   3833              4044289  1429635  178925
 
     Using Slab Decomposition
 


     bravais-lattice index     =            0
     lattice parameter (alat)  =      28.3459  a.u.
     unit-cell volume          =   22775.6289 (a.u.)^3
     number of atoms/cell      =            3
     number of atomic types    =            2
     number of electrons       =         8.00
     number of Kohn-Sham states=            8
     kinetic-energy cutoff     =      60.0000  Ry
     charge density cutoff     =     480.0000  Ry
     scf convergence threshold =      1.0E-07
     mixing beta               =       0.7000
     number of iterations used =            8  plain     mixing
     Exchange-correlation=  SLA  PW   PBX  PBC
                           (   1   4   3   4   0   0   0)

     celldm(1)=  28.345892  celldm(2)=   0.000000  celldm(3)=   0.000000
     celldm(4)=   0.000000  celldm(5)=   0.000000  celldm(6)=   0.000000

     crystal axes: (cart. coord. in units of alat)
               a(1) = (   1.000000   0.000000   0.000000 )  
               a(2) = (   0.000000   1.000000   0.000000 )  
               a(3) = (   0.000000   0.000000   1.000000 )  

     reciprocal axes: (cart. coord. in units 2 pi/alat)
               b(1) = (  1.000000  0.000000  0.000000 )  
               b(2) = (  0.000000  1.000000  0.000000 )  
               b(3) = (  0.000000  0.000000  1.000000 )  


     PseudoPot. # 1 for O  read from file:
     /home/krojas/github_files/MatSciToolKit/tutorial/example_ase_ir_2/ir_1/o_pbe_v1.2.uspp.F.UPF
     MD5 check sum: 734c27235a0248c51dbae37a1fbe46ec
     Pseudo is Ultrasoft + core correction, Zval =  6.0
     Generated by new atomic code, or converted to UPF format
     Using radial grid of  737 points,  5 beta functions with: 
                l(1) =   0
                l(2) =   0
                l(3) =   1
                l(4) =   1
                l(5) =   2
     Q(r) pseudized with  8 coefficients,  rinner =    0.900   0.900   0.900
                                                       0.900   0.900

     PseudoPot. # 2 for H  read from file:
     /home/krojas/github_files/MatSciToolKit/tutorial/example_ase_ir_2/ir_1/h_pbe_v1.4.uspp.F.UPF
     MD5 check sum: 761ae9a214b05c3daf00ab9f6b793d6f
     Pseudo is Ultrasoft, Zval =  1.0
     Generated by new atomic code, or converted to UPF format
     Using radial grid of  615 points,  2 beta functions with: 
                l(1) =   0
                l(2) =   0
     Q(r) pseudized with  8 coefficients,  rinner =    0.700

     atomic species   valence    mass     pseudopotential
        O              6.00    15.99900     O ( 1.00)
        H              1.00     1.00800     H ( 1.00)

     No symmetry found



   Cartesian axes

     site n.     atom                  positions (alat units)
         1           O   tau(   1) = (   0.5000000   0.5000000   0.5201804  )
         2           H   tau(   2) = (   0.5000000   0.5520146   0.4798196  )
         3           H   tau(   3) = (   0.5000000   0.4486521   0.4798196  )

     number of k points=     1  Gaussian smearing, width (Ry)=  0.0100
                       cart. coord. in units 2pi/alat
        k(    1) = (   0.0000000   0.0000000   0.0000000), wk =   2.0000000

     Dense  grid:  4044289 G-vectors     FFT dimensions: ( 200, 200, 200)

     Smooth grid:  1429635 G-vectors     FFT dimensions: ( 144, 144, 144)

     Estimated max dynamical RAM per process >       2.25 GB

     Estimated total dynamical RAM >       9.02 GB

     Initial potential from superposition of free atoms

     starting charge       8.0000, renormalised to       8.0000

     negative rho (up, down):  5.052E-04 0.000E+00
 
     Adding external electric field

     Computed dipole along edir(1) : 
        Dipole                0.0000 Ry au,          0.0000 Debye
        Dipole field          0.0000 Ry au, 
 
        Potential amp.       -0.0000 Ry
        Total length         28.3431 bohr
 
     Starting wfcs are    6 randomized atomic wfcs +    2 random wfcs

     total cpu time spent up to now is        8.1 secs

     per-process dynamical memory:   488.9 Mb

     Self-consistent Calculation

     iteration #  1     ecut=    60.00 Ry     beta= 0.70
     Davidson diagonalization with overlap
     ethr =  1.00E-02,  avg # of iterations =  8.0

     negative rho (up, down):  1.820E-03 0.000E+00
 
     Adding external electric field

     Computed dipole along edir(1) : 
        Dipole                0.0000 Ry au,          0.0000 Debye
        Dipole field          0.0000 Ry au, 
 
        Potential amp.       -0.0000 Ry
        Total length         28.3431 bohr
 

     total cpu time spent up to now is       19.1 secs

     total energy              =     -34.47440712 Ry
     estimated scf accuracy    <       0.45480523 Ry

     iteration #  2     ecut=    60.00 Ry     beta= 0.70
     Davidson diagonalization with overlap
     ethr =  5.69E-03,  avg # of iterations =  2.0

     negative rho (up, down):  2.089E-03 0.000E+00
 
     Adding external electric field

     Computed dipole along edir(1) : 
        Dipole               -0.0006 Ry au,         -0.0014 Debye
        Dipole field         -0.0000 Ry au, 
 
        Potential amp.        0.0000 Ry
        Total length         28.3431 bohr
 

     total cpu time spent up to now is       28.8 secs

     total energy              =     -34.58596877 Ry
     estimated scf accuracy    <       0.45458882 Ry

     iteration #  3     ecut=    60.00 Ry     beta= 0.70
     Davidson diagonalization with overlap
     ethr =  5.68E-03,  avg # of iterations =  2.0

     negative rho (up, down):  2.367E-03 0.000E+00
 
     Adding external electric field

     Computed dipole along edir(1) : 
        Dipole                0.0001 Ry au,          0.0001 Debye
        Dipole field          0.0000 Ry au, 
 
        Potential amp.       -0.0000 Ry
        Total length         28.3431 bohr
 

     total cpu time spent up to now is       38.2 secs

     total energy              =     -34.66643171 Ry
     estimated scf accuracy    <       0.00371486 Ry

     iteration #  4     ecut=    60.00 Ry     beta= 0.70
     Davidson diagonalization with overlap
     ethr =  4.64E-05,  avg # of iterations =  8.0

     negative rho (up, down):  2.365E-03 0.000E+00
 
     Adding external electric field

     Computed dipole along edir(1) : 
        Dipole               -0.0000 Ry au,         -0.0001 Debye
        Dipole field         -0.0000 Ry au, 
 
        Potential amp.        0.0000 Ry
        Total length         28.3431 bohr
 

     total cpu time spent up to now is       49.1 secs

     total energy              =     -34.66743419 Ry
     estimated scf accuracy    <       0.00175424 Ry

     iteration #  5     ecut=    60.00 Ry     beta= 0.70
     Davidson diagonalization with overlap
     ethr =  2.19E-05,  avg # of iterations =  1.0

     negative rho (up, down):  2.406E-03 0.000E+00
 
     Adding external electric field

     Computed dipole along edir(1) : 
        Dipole               -0.0000 Ry au,         -0.0001 Debye
        Dipole field         -0.0000 Ry au, 
 
        Potential amp.        0.0000 Ry
        Total length         28.3431 bohr
 

     total cpu time spent up to now is       58.4 secs

     total energy              =     -34.66729367 Ry
     estimated scf accuracy    <       0.00034625 Ry

     iteration #  6     ecut=    60.00 Ry     beta= 0.70
     Davidson diagonalization with overlap
     ethr =  4.33E-06,  avg # of iterations =  8.0

     negative rho (up, down):  2.403E-03 0.000E+00
 
     Adding external electric field

     Computed dipole along edir(1) : 
        Dipole               -0.0000 Ry au,         -0.0001 Debye
        Dipole field         -0.0000 Ry au, 
 
        Potential amp.        0.0000 Ry
        Total length         28.3431 bohr
 

     total cpu time spent up to now is       68.9 secs

     total energy              =     -34.66741237 Ry
     estimated scf accuracy    <       0.00011735 Ry

     iteration #  7     ecut=    60.00 Ry     beta= 0.70
     Davidson diagonalization with overlap
     ethr =  1.47E-06,  avg # of iterations =  5.0

     negative rho (up, down):  2.410E-03 0.000E+00
 
     Adding external electric field

     Computed dipole along edir(1) : 
        Dipole                0.0000 Ry au,          0.0001 Debye
        Dipole field          0.0000 Ry au, 
 
        Potential amp.       -0.0000 Ry
        Total length         28.3431 bohr
 

     total cpu time spent up to now is       79.2 secs

     total energy              =     -34.66743005 Ry
     estimated scf accuracy    <       0.00000125 Ry

     iteration #  8     ecut=    60.00 Ry     beta= 0.70
     Davidson diagonalization with overlap
     ethr =  1.56E-08,  avg # of iterations =  2.0

     negative rho (up, down):  2.411E-03 0.000E+00
 
     Adding external electric field

     Computed dipole along edir(1) : 
        Dipole                0.0000 Ry au,          0.0000 Debye
        Dipole field          0.0000 Ry au, 
 
        Potential amp.       -0.0000 Ry
        Total length         28.3431 bohr
 

     total cpu time spent up to now is       88.8 secs

     total energy              =     -34.66743016 Ry
     estimated scf accuracy    <       0.00000025 Ry

     iteration #  9     ecut=    60.00 Ry     beta= 0.70
     Davidson diagonalization with overlap
     ethr =  3.11E-09,  avg # of iterations =  2.0

     negative rho (up, down):  2.411E-03 0.000E+00
 
     Adding external electric field

     Computed dipole along edir(1) : 
        Dipole               -0.0000 Ry au,         -0.0000 Debye
        Dipole field         -0.0000 Ry au, 
 
        Potential amp.        0.0000 Ry
        Total length         28.3431 bohr
 

     total cpu time spent up to now is       98.0 secs

     End of self-consistent calculation

          k = 0.0000 0.0000 0.0000 (178925 PWs)   bands (ev):

   -25.0831 -12.9186  -9.2824  -7.1787  -1.0005  -0.1071   0.2471   0.3814

     the Fermi energy is    -5.3045 ev

!    total energy              =     -34.66743020 Ry
     estimated scf accuracy    <          7.0E-09 Ry
     smearing contrib. (-TS)   =      -0.00000000 Ry
     internal energy E=F+TS    =     -34.66743020 Ry

     The total energy is F=E-TS. E is the sum of the following terms:
     one-electron contribution =     -69.35149985 Ry
     hartree contribution      =      36.15726162 Ry
     xc contribution           =      -8.67093069 Ry
     ewald contribution        =       7.19773872 Ry
     electric field correction =       0.00000000 Ry

     convergence has been achieved in   9 iterations

     negative rho (up, down):  2.411E-03 0.000E+00

     Forces acting on atoms (cartesian axes, Ry/au):

     atom    1 type  1   force =     0.00000015    0.01228338   -0.00739064
     atom    2 type  2   force =     0.00000014   -0.01335996    0.00846828
     atom    3 type  2   force =    -0.00000028    0.00107658   -0.00107765
     The non-local contrib.  to forces
     atom    1 type  1   force =     0.00000300    0.00223716   -2.16744630
     atom    2 type  2   force =    -0.00000003   -0.19169578    0.13694076
     atom    3 type  2   force =    -0.00000002    0.19534664    0.14163401
     The ionic contribution  to forces
     atom    1 type  1   force =    -0.00000000    0.03053187    4.27092508
     atom    2 type  2   force =    -0.00000000    2.95078148   -2.10976797
     atom    3 type  2   force =     0.00000000   -2.98131335   -2.16115711
     The local contribution  to forces
     atom    1 type  1   force =     0.00000529   -0.02036901   -2.12276425
     atom    2 type  2   force =     0.00000010   -2.77244304    1.98126659
     atom    3 type  2   force =     0.00000078    2.78703937    2.01841590
     The core correction contribution to forces
     atom    1 type  1   force =    -0.00000001   -0.00011860    0.01168060
     atom    2 type  2   force =     0.00000000    0.00000000    0.00000000
     atom    3 type  2   force =     0.00000000    0.00000000    0.00000000
     The Hubbard contrib.    to forces
     atom    1 type  1   force =     0.00000000    0.00000000    0.00000000
     atom    2 type  2   force =     0.00000000    0.00000000    0.00000000
     atom    3 type  2   force =     0.00000000    0.00000000    0.00000000
     The SCF correction term to forces
     atom    1 type  1   force =    -0.00000838    0.00000150    0.00019767
     atom    2 type  2   force =    -0.00000014   -0.00000308    0.00001235
     atom    3 type  2   force =    -0.00000125    0.00000347    0.00001299

     Total force =     0.021401     Total SCF correction =     0.000199

     Writing all to output data dir tmpdir/pwscf.save/
 
     init_run     :      6.58s CPU      8.03s WALL (       1 calls)
     electrons    :     75.03s CPU     90.04s WALL (       1 calls)
     forces       :      3.94s CPU      4.90s WALL (       1 calls)

     Called by init_run:
     wfcinit      :      0.42s CPU      0.46s WALL (       1 calls)
     potinit      :      1.88s CPU      2.19s WALL (       1 calls)
     hinit0       :      0.45s CPU      0.58s WALL (       1 calls)

     Called by electrons:
     c_bands      :     12.48s CPU     13.67s WALL (       9 calls)
     sum_band     :     29.37s CPU     34.39s WALL (       9 calls)
     v_of_rho     :     13.39s CPU     16.06s WALL (      10 calls)
     newd         :     17.66s CPU     24.27s WALL (      10 calls)
     mix_rho      :      3.74s CPU      4.05s WALL (       9 calls)

     Called by c_bands:
     init_us_2    :      0.16s CPU      0.18s WALL (      19 calls)
     init_us_2:cp :      0.16s CPU      0.18s WALL (      19 calls)
     cegterg      :     12.17s CPU     13.35s WALL (       9 calls)

     Called by *egterg:
     cdiaghg      :      0.01s CPU      0.01s WALL (      47 calls)
     h_psi        :     11.09s CPU     12.30s WALL (      48 calls)
     s_psi        :      0.16s CPU      0.16s WALL (      48 calls)
     g_psi        :      0.03s CPU      0.03s WALL (      38 calls)

     Called by h_psi:
     h_psi:calbec :      0.19s CPU      0.21s WALL (      48 calls)
     vloc_psi     :     10.67s CPU     11.86s WALL (      48 calls)
     add_vuspsi   :      0.17s CPU      0.18s WALL (      48 calls)

     General routines
     calbec       :      0.25s CPU      0.28s WALL (      61 calls)
     fft          :     11.83s CPU     15.20s WALL (     139 calls)
     ffts         :      0.60s CPU      0.72s WALL (      19 calls)
     fftw         :      8.40s CPU      9.62s WALL (     550 calls)
     interpolate  :      1.34s CPU      1.61s WALL (      10 calls)
 
     Parallel routines
 
     PWSCF        :   1m25.68s CPU   1m43.31s WALL

 
   This run was terminated on:  17:20: 6   8Nov2023            

=------------------------------------------------------------------------------=
   JOB DONE.
=------------------------------------------------------------------------------=
