
     Program PWSCF v.7.2 starts on  1Dec2023 at 10:22: 1 

     This program is part of the open-source Quantum ESPRESSO suite
     for quantum simulation of materials; please cite
         "P. Giannozzi et al., J. Phys.:Condens. Matter 21 395502 (2009);
         "P. Giannozzi et al., J. Phys.:Condens. Matter 29 465901 (2017);
         "P. Giannozzi et al., J. Chem. Phys. 152 154105 (2020);
          URL http://www.quantum-espresso.org", 
     in publications or presentations arising from this work. More details at
     http://www.quantum-espresso.org/quote

     Parallel version (MPI), running on     4 processors

     MPI processes distributed on     1 nodes
     12466 MiB available memory on the printing compute node when the environment starts
 
     Reading input from espresso.pwi
Warning: card &CELL ignored
Warning: card / ignored

     Current dimensions of program PWSCF are:
     Max number of different atomic species (ntypx) = 10
     Max number of k-points (npk) =  40000
     Max angular momentum in pseudopotentials (lmaxx) =  4

     IMPORTANT: XC functional enforced from input :
     Exchange-correlation= VDW-DF2-B86R
                           (   1   4  26   0   2   0   0)
     Any further DFT definition will be discarded
     Please, verify this is what you really want

 
     R & G space division:  proc/nbgrp/npool/nimage =       4
     Subspace diagonalization in iterative solution of the eigenvalue problem:
     a serial algorithm will be used

 
     Parallelization info
     --------------------
     sticks:   dense  smooth     PW     G-vecs:    dense   smooth      PW
     Min         271     137     41                28481    10067    1796
     Max         272     139     44                28485    10069    1803
     Sum        1085     551    167               113933    40273    7201
 
     Using Slab Decomposition
 


     bravais-lattice index     =            0
     lattice parameter (alat)  =       5.6973  a.u.
     unit-cell volume          =     642.1518 (a.u.)^3
     number of atoms/cell      =            4
     number of atomic types    =            2
     number of electrons       =         8.00
     number of Kohn-Sham states=            8
     kinetic-energy cutoff     =      60.0000  Ry
     charge density cutoff     =     480.0000  Ry
     scf convergence threshold =      1.0E-09
     mixing beta               =       0.7000
     number of iterations used =            8  plain     mixing
     Exchange-correlation= VDW-DF2-B86R
                           (   1   4  26   0   2   0   0)

     celldm(1)=   5.697334  celldm(2)=   0.000000  celldm(3)=   0.000000
     celldm(4)=   0.000000  celldm(5)=   0.000000  celldm(6)=   0.000000

     crystal axes: (cart. coord. in units of alat)
               a(1) = (   0.999994  -0.003591   0.000000 )  
               a(2) = (   0.503167   0.875437   0.000000 )  
               a(3) = (   0.000000   0.000000   3.958265 )  

     reciprocal axes: (cart. coord. in units 2 pi/alat)
               b(1) = (  0.997946 -0.573581  0.000000 )  
               b(2) = (  0.004094  1.139933  0.000000 )  
               b(3) = (  0.000000  0.000000  0.252636 )  


     PseudoPot. # 1 for B  read from file:
     /home/krojas/github_files/MatSciToolKit/tutorial/example_ase_vib_1/b_pbe_v1.4.uspp.F.UPF
     MD5 check sum: cc6de2960df11db49a60e589f9ebb39b
     Pseudo is Ultrasoft + core correction, Zval =  3.0
     Generated by new atomic code, or converted to UPF format
     Using radial grid of  781 points,  4 beta functions with: 
                l(1) =   0
                l(2) =   0
                l(3) =   1
                l(4) =   1
     Q(r) pseudized with  8 coefficients,  rinner =    1.100   1.100   1.100


     PseudoPot. # 2 for H  read from file:
     /home/krojas/github_files/MatSciToolKit/tutorial/example_ase_vib_1/h_pbe_v1.4.uspp.F.UPF
     MD5 check sum: 761ae9a214b05c3daf00ab9f6b793d6f
     Pseudo is Ultrasoft, Zval =  1.0
     Generated by new atomic code, or converted to UPF format
     Using radial grid of  615 points,  2 beta functions with: 
                l(1) =   0
                l(2) =   0
     Q(r) pseudized with  8 coefficients,  rinner =    0.700

     atomic species   valence    mass     pseudopotential
        B              3.00    10.81000     B ( 1.00)
        H              1.00     1.00800     H ( 1.00)

     No symmetry found



   Cartesian axes

     site n.     atom                  positions (alat units)
         1           B   tau(   1) = (   0.0000000   0.0000000   1.9824494  )
         2           B   tau(   2) = (   0.5009657   0.2715580   1.9791325  )
         3           H   tau(   3) = (   0.5020846   0.5735104   2.2998349  )
         4           H   tau(   4) = (   0.5020846   0.5735104   1.6584302  )

     number of k points=    74  Gaussian smearing, width (Ry)=  0.0100
                       cart. coord. in units 2pi/alat
        k(    1) = (   0.0000000   0.0000000   0.0000000), wk =   0.0138889
        k(    2) = (   0.0003412   0.0949944   0.0000000), wk =   0.0277778
        k(    3) = (   0.0006823   0.1899889   0.0000000), wk =   0.0277778
        k(    4) = (   0.0010235   0.2849833   0.0000000), wk =   0.0277778
        k(    5) = (   0.0013646   0.3799777   0.0000000), wk =   0.0277778
        k(    6) = (   0.0017058   0.4749722   0.0000000), wk =   0.0277778
        k(    7) = (  -0.0020470  -0.5699666   0.0000000), wk =   0.0138889
        k(    8) = (   0.0831622  -0.0477984   0.0000000), wk =   0.0277778
        k(    9) = (   0.0835034   0.0471960   0.0000000), wk =   0.0277778
        k(   10) = (   0.0838445   0.1421905   0.0000000), wk =   0.0277778
        k(   11) = (   0.0841857   0.2371849   0.0000000), wk =   0.0277778
        k(   12) = (   0.0845269   0.3321793   0.0000000), wk =   0.0277778
        k(   13) = (   0.0848680   0.4271738   0.0000000), wk =   0.0277778
        k(   14) = (   0.0811152  -0.6177650   0.0000000), wk =   0.0277778
        k(   15) = (   0.0814564  -0.5227706   0.0000000), wk =   0.0277778
        k(   16) = (   0.0817976  -0.4277762   0.0000000), wk =   0.0277778
        k(   17) = (   0.0821387  -0.3327817   0.0000000), wk =   0.0277778
        k(   18) = (   0.0824799  -0.2377873   0.0000000), wk =   0.0277778
        k(   19) = (   0.0828210  -0.1427928   0.0000000), wk =   0.0277778
        k(   20) = (   0.1663244  -0.0955968   0.0000000), wk =   0.0277778
        k(   21) = (   0.1666656  -0.0006024   0.0000000), wk =   0.0277778
        k(   22) = (   0.1670067   0.0943921   0.0000000), wk =   0.0277778
        k(   23) = (   0.1673479   0.1893865   0.0000000), wk =   0.0277778
        k(   24) = (   0.1676891   0.2843809   0.0000000), wk =   0.0277778
        k(   25) = (   0.1680302   0.3793754   0.0000000), wk =   0.0277778
        k(   26) = (   0.1642774  -0.6655634   0.0000000), wk =   0.0277778
        k(   27) = (   0.1646186  -0.5705690   0.0000000), wk =   0.0277778
        k(   28) = (   0.1649598  -0.4755746   0.0000000), wk =   0.0277778
        k(   29) = (   0.1653009  -0.3805801   0.0000000), wk =   0.0277778
        k(   30) = (   0.1656421  -0.2855857   0.0000000), wk =   0.0277778
        k(   31) = (   0.1659833  -0.1905913   0.0000000), wk =   0.0277778
        k(   32) = (   0.2494866  -0.1433952   0.0000000), wk =   0.0277778
        k(   33) = (   0.2498278  -0.0484008   0.0000000), wk =   0.0277778
        k(   34) = (   0.2501689   0.0465936   0.0000000), wk =   0.0277778
        k(   35) = (   0.2505101   0.1415881   0.0000000), wk =   0.0277778
        k(   36) = (   0.2508513   0.2365825   0.0000000), wk =   0.0277778
        k(   37) = (   0.2511924   0.3315769   0.0000000), wk =   0.0277778
        k(   38) = (   0.2474397  -0.7133618   0.0000000), wk =   0.0277778
        k(   39) = (   0.2477808  -0.6183674   0.0000000), wk =   0.0277778
        k(   40) = (   0.2481220  -0.5233730   0.0000000), wk =   0.0277778
        k(   41) = (   0.2484631  -0.4283785   0.0000000), wk =   0.0277778
        k(   42) = (   0.2488043  -0.3333841   0.0000000), wk =   0.0277778
        k(   43) = (   0.2491455  -0.2383897   0.0000000), wk =   0.0277778
        k(   44) = (   0.3326488  -0.1911936   0.0000000), wk =   0.0277778
        k(   45) = (   0.3329900  -0.0961992   0.0000000), wk =   0.0277778
        k(   46) = (   0.3333312  -0.0012048   0.0000000), wk =   0.0277778
        k(   47) = (   0.3336723   0.0937897   0.0000000), wk =   0.0277778
        k(   48) = (   0.3340135   0.1887841   0.0000000), wk =   0.0277778
        k(   49) = (   0.3343546   0.2837785   0.0000000), wk =   0.0277778
        k(   50) = (   0.3306019  -0.7611603   0.0000000), wk =   0.0277778
        k(   51) = (   0.3309430  -0.6661658   0.0000000), wk =   0.0277778
        k(   52) = (   0.3312842  -0.5711714   0.0000000), wk =   0.0277778
        k(   53) = (   0.3316253  -0.4761769   0.0000000), wk =   0.0277778
        k(   54) = (   0.3319665  -0.3811825   0.0000000), wk =   0.0277778
        k(   55) = (   0.3323077  -0.2861881   0.0000000), wk =   0.0277778
        k(   56) = (   0.4158110  -0.2389921   0.0000000), wk =   0.0277778
        k(   57) = (   0.4161522  -0.1439976   0.0000000), wk =   0.0277778
        k(   58) = (   0.4164934  -0.0490032   0.0000000), wk =   0.0277778
        k(   59) = (   0.4168345   0.0459913   0.0000000), wk =   0.0277778
        k(   60) = (   0.4171757   0.1409857   0.0000000), wk =   0.0277778
        k(   61) = (   0.4175169   0.2359801   0.0000000), wk =   0.0277778
        k(   62) = (   0.4137641  -0.8089587   0.0000000), wk =   0.0277778
        k(   63) = (   0.4141052  -0.7139642   0.0000000), wk =   0.0277778
        k(   64) = (   0.4144464  -0.6189698   0.0000000), wk =   0.0277778
        k(   65) = (   0.4147876  -0.5239754   0.0000000), wk =   0.0277778
        k(   66) = (   0.4151287  -0.4289809   0.0000000), wk =   0.0277778
        k(   67) = (   0.4154699  -0.3339865   0.0000000), wk =   0.0277778
        k(   68) = (  -0.4989732   0.2867905   0.0000000), wk =   0.0138889
        k(   69) = (  -0.4986321   0.3817849   0.0000000), wk =   0.0277778
        k(   70) = (  -0.4982909   0.4767793   0.0000000), wk =   0.0277778
        k(   71) = (  -0.4979498   0.5717738   0.0000000), wk =   0.0277778
        k(   72) = (  -0.4976086   0.6667682   0.0000000), wk =   0.0277778
        k(   73) = (  -0.4972674   0.7617626   0.0000000), wk =   0.0277778
        k(   74) = (  -0.5010202  -0.2831762   0.0000000), wk =   0.0138889

     Dense  grid:   113933 G-vectors     FFT dimensions: (  40,  45, 160)

     Smooth grid:    40273 G-vectors     FFT dimensions: (  30,  30, 120)

     Estimated max dynamical RAM per process >      51.09 MB

     Estimated total dynamical RAM >     204.35 MB

     Initial potential from superposition of free atoms

     starting charge       7.9994, renormalised to       8.0000

     negative rho (up, down):  1.263E-05 0.000E+00


     %%%%%%%%%%%%%%%%%%%%%%%%%%%%%%%%%%%%%%%%%%%%%%%%%%%%%%%%%%%%%%%%%%%%%%%%
     %                                                                      %
     % You are using vdW-DF, which was implemented by the Thonhauser group. %
     % Please cite the following two papers that made this development      %
     % possible and the two reviews that describe the various versions:     %
     %                                                                      %
     %   T. Thonhauser et al., PRL 115, 136402 (2015).                      %
     %   T. Thonhauser et al., PRB 76, 125112 (2007).                       %
     %   K. Berland et al., Rep. Prog. Phys. 78, 066501 (2015).             %
     %   D.C. Langreth et al., J. Phys.: Condens. Matter 21, 084203 (2009). %
     %                                                                      %
     % If you are calculating stress with vdW-DF, please also cite:         %
     %                                                                      %
     %   R. Sabatini et al., J. Phys.: Condens. Matter 24, 424209 (2012).   %
     %                                                                      %
     %%%%%%%%%%%%%%%%%%%%%%%%%%%%%%%%%%%%%%%%%%%%%%%%%%%%%%%%%%%%%%%%%%%%%%%%

     %%%%%%%%%%%%%%%%%%%%%%%%%%%%%%%%%%%%%%%%%%%%%%%%%%%%%%%%%%%%%%%%%%%%%%%%
     %                                                                      %
     %  vdW-DF NEWS:                                                        %
     %                                                                      %
     %  * vdW-DF3 is now available. DOI: 10.1021/acs.jctc.0c00471           %
     %    use with input_dft = 'vdW-DF3-opt1' or 'vdW-DF3-opt2'             %
     %                                                                      %
     %  * Unscreened and range-separated hybrid vdW-DF-cx functionals       %
     %    DOI: 10.1063/1.4986522 and 10.1088/1361-648X/ac2ad2               %
     %    use with input_dft = 'vdW-DF-cx0'    and 'vdW-DF-ahcx'            %
     %  * Unscreened and range-separated hybrid vdW-DF2-b86r functionals    %
     %    DOI: 10.1063/1.4986522 and DOI: 10.1103/PhysRevX.12.041003        %
     %    use with input_dft = 'vdW-DF2-br0' and 'vdW-DF2-ahbr'             %
     %                                                                      %
     %%%%%%%%%%%%%%%%%%%%%%%%%%%%%%%%%%%%%%%%%%%%%%%%%%%%%%%%%%%%%%%%%%%%%%%%


     Starting wfcs are   10 randomized atomic wfcs

     total cpu time spent up to now is       26.7 secs

     per-process dynamical memory:    97.9 Mb

     Self-consistent Calculation

     iteration #  1     ecut=    60.00 Ry     beta= 0.70
     Davidson diagonalization with overlap
     ethr =  1.00E-02,  avg # of iterations =  3.9

     negative rho (up, down):  1.291E-05 0.000E+00

     total cpu time spent up to now is       29.8 secs

     total energy              =     -15.04539232 Ry
     estimated scf accuracy    <       0.32934227 Ry

     iteration #  2     ecut=    60.00 Ry     beta= 0.70
     Davidson diagonalization with overlap
     ethr =  4.12E-03,  avg # of iterations =  3.7

     negative rho (up, down):  2.186E-05 0.000E+00

     total cpu time spent up to now is       32.7 secs

     total energy              =     -15.10075786 Ry
     estimated scf accuracy    <       0.01907542 Ry

     iteration #  3     ecut=    60.00 Ry     beta= 0.70
     Davidson diagonalization with overlap
     ethr =  2.38E-04,  avg # of iterations =  4.9

     negative rho (up, down):  3.092E-05 0.000E+00

     total cpu time spent up to now is       35.5 secs

     total energy              =     -15.10412027 Ry
     estimated scf accuracy    <       0.00062418 Ry

     iteration #  4     ecut=    60.00 Ry     beta= 0.70
     Davidson diagonalization with overlap
     ethr =  7.80E-06,  avg # of iterations =  5.7

     negative rho (up, down):  3.174E-05 0.000E+00

     total cpu time spent up to now is       38.9 secs

     total energy              =     -15.10420864 Ry
     estimated scf accuracy    <       0.00009469 Ry

     iteration #  5     ecut=    60.00 Ry     beta= 0.70
     Davidson diagonalization with overlap
     ethr =  1.18E-06,  avg # of iterations =  3.0

     negative rho (up, down):  3.313E-05 0.000E+00

     total cpu time spent up to now is       41.4 secs

     total energy              =     -15.10423374 Ry
     estimated scf accuracy    <       0.00000736 Ry

     iteration #  6     ecut=    60.00 Ry     beta= 0.70
     Davidson diagonalization with overlap
     ethr =  9.21E-08,  avg # of iterations =  2.0

     negative rho (up, down):  3.340E-05 0.000E+00

     total cpu time spent up to now is       43.5 secs

     total energy              =     -15.10423525 Ry
     estimated scf accuracy    <       0.00000019 Ry

     iteration #  7     ecut=    60.00 Ry     beta= 0.70
     Davidson diagonalization with overlap
     ethr =  2.40E-09,  avg # of iterations =  2.1

     negative rho (up, down):  3.347E-05 0.000E+00

     total cpu time spent up to now is       46.0 secs

     total energy              =     -15.10423529 Ry
     estimated scf accuracy    <          7.0E-09 Ry

     iteration #  8     ecut=    60.00 Ry     beta= 0.70
     Davidson diagonalization with overlap
     ethr =  8.73E-11,  avg # of iterations =  2.8

     negative rho (up, down):  3.347E-05 0.000E+00

     total cpu time spent up to now is       48.6 secs

     End of self-consistent calculation

          k = 0.0000 0.0000 0.0000 (  5017 PWs)   bands (ev):

   -14.5318  -8.8544  -3.0967  -0.6483   0.5637   1.9361   2.9053   5.5961

          k = 0.0003 0.0950 0.0000 (  4979 PWs)   bands (ev):

   -14.4331  -8.7367  -3.4835  -0.8947   0.6864   2.0771   3.0331   5.7008

          k = 0.0007 0.1900 0.0000 (  4988 PWs)   bands (ev):

   -14.1421  -8.3889  -4.4718  -1.4604   1.0701   2.4821   3.4227   3.9692

          k = 0.0010 0.2850 0.0000 (  5020 PWs)   bands (ev):

   -13.6769  -7.8308  -5.7391  -2.0758   1.7133   1.9104   3.3006   4.0499

          k = 0.0014 0.3800 0.0000 (  5038 PWs)   bands (ev):

   -13.0838  -7.1149  -7.0166  -2.5821   0.1864   2.5853   4.2676   4.6382

          k = 0.0017 0.4750 0.0000 (  5038 PWs)   bands (ev):

   -12.4871  -8.0634  -6.3817  -2.9061  -1.1726   3.4618   4.9196   5.5263

          k =-0.0020-0.5700 0.0000 (  5036 PWs)   bands (ev):

   -12.1970  -8.5087  -6.0189  -3.0170  -1.7471   3.7915   5.6275   6.1144

          k = 0.0832-0.0478 0.0000 (  5007 PWs)   bands (ev):

   -14.4333  -8.7536  -3.3740  -1.0351   0.6995   2.0771   3.0470   5.6651

          k = 0.0835 0.0472 0.0000 (  5007 PWs)   bands (ev):

   -14.4333  -8.7536  -3.3741  -1.0349   0.6995   2.0771   3.0470   5.6655

          k = 0.0838 0.1422 0.0000 (  5003 PWs)   bands (ev):

   -14.2387  -8.5226  -4.0649  -1.4389   0.9527   2.3519   3.3076   4.8504

          k = 0.0842 0.2372 0.0000 (  5010 PWs)   bands (ev):

   -13.8605  -8.0725  -5.1622  -2.0770   1.4733   2.6232   3.2036   3.8351

          k = 0.0845 0.3322 0.0000 (  5029 PWs)   bands (ev):

   -13.3287  -7.4369  -6.3981  -2.6971   1.0232   2.2501   3.8475   4.5685

          k = 0.0849 0.4272 0.0000 (  5030 PWs)   bands (ev):

   -12.7193  -7.5471  -6.7022  -3.1536  -0.5026   3.2047   4.9574   5.1305

          k = 0.0811-0.6178 0.0000 (  5055 PWs)   bands (ev):

   -12.2356  -8.3195  -6.1114  -3.3905  -1.4993   3.9995   5.5593   6.2861

          k = 0.0815-0.5228 0.0000 (  5055 PWs)   bands (ev):

   -12.2356  -8.3196  -6.1114  -3.3905  -1.4993   3.9995   5.5594   6.2864

          k = 0.0818-0.4278 0.0000 (  5030 PWs)   bands (ev):

   -12.7192  -7.5471  -6.7022  -3.1536  -0.5026   3.2048   4.9574   5.1304

          k = 0.0821-0.3328 0.0000 (  5029 PWs)   bands (ev):

   -13.3286  -7.4369  -6.3981  -2.6972   1.0233   2.2502   3.8476   4.5684

          k = 0.0825-0.2378 0.0000 (  5010 PWs)   bands (ev):

   -13.8605  -8.0725  -5.1621  -2.0771   1.4733   2.6232   3.2036   3.8351

          k = 0.0828-0.1428 0.0000 (  5003 PWs)   bands (ev):

   -14.2387  -8.5226  -4.0647  -1.4391   0.9527   2.3520   3.3076   4.8506

          k = 0.1663-0.0956 0.0000 (  5007 PWs)   bands (ev):

   -14.1441  -8.4615  -4.1290  -1.9014   1.1131   2.4886   3.4752   5.3155

          k = 0.1667-0.0006 0.0000 (  4991 PWs)   bands (ev):

   -14.2396  -8.5728  -3.7739  -1.8091   0.9845   2.3573   3.3435   5.9838

          k = 0.1670 0.0944 0.0000 (  5007 PWs)   bands (ev):

   -14.1441  -8.4615  -4.1292  -1.9010   1.1130   2.4886   3.4752   5.3153

          k = 0.1673 0.1894 0.0000 (  5031 PWs)   bands (ev):

   -13.8635  -8.1339  -4.9445  -2.3552   1.5032   2.7911   3.7062   3.8773

          k = 0.1677 0.2844 0.0000 (  5037 PWs)   bands (ev):

   -13.4183  -7.6139  -5.9408  -3.0816   1.7761   2.1628   3.7405   4.5426

          k = 0.1680 0.3794 0.0000 (  5046 PWs)   bands (ev):

   -12.8594  -6.9769  -6.9533  -3.7539   0.2979   3.0573   4.6650   5.4163

          k = 0.1643-0.6656 0.0000 (  5071 PWs)   bands (ev):

   -12.3134  -7.8380  -6.3207  -4.1894  -0.8647   4.0829   5.7931   6.1241

          k = 0.1646-0.5706 0.0000 (  5067 PWs)   bands (ev):

   -12.0575  -8.2089  -6.0209  -4.3370  -1.3424   4.6970   6.5080   6.8303

          k = 0.1650-0.4756 0.0000 (  5071 PWs)   bands (ev):

   -12.3133  -7.8380  -6.3207  -4.1894  -0.8647   4.0830   5.7932   6.1241

          k = 0.1653-0.3806 0.0000 (  5048 PWs)   bands (ev):

   -12.8593  -6.9769  -6.9532  -3.7540   0.2980   3.0573   4.6650   5.4165

          k = 0.1656-0.2856 0.0000 (  5037 PWs)   bands (ev):

   -13.4182  -7.6139  -5.9406  -3.0818   1.7763   2.1629   3.7406   4.5427

          k = 0.1660-0.1906 0.0000 (  5031 PWs)   bands (ev):

   -13.8635  -8.1339  -4.9442  -2.3556   1.5033   2.7912   3.7064   3.8773

          k = 0.2495-0.1434 0.0000 (  5031 PWs)   bands (ev):

   -13.6871  -8.0128  -5.2030  -2.7772   1.8062   2.9983   3.9840   4.1894

          k = 0.2498-0.0484 0.0000 (  5026 PWs)   bands (ev):

   -13.8662  -8.2146  -4.5803  -2.8090   1.5443   2.8956   3.9228   5.1363

          k = 0.2502 0.0466 0.0000 (  5026 PWs)   bands (ev):

   -13.8662  -8.2146  -4.5805  -2.8086   1.5442   2.8955   3.9228   5.1360

          k = 0.2505 0.1416 0.0000 (  5031 PWs)   bands (ev):

   -13.6871  -8.0128  -5.2034  -2.7766   1.8061   2.9981   3.9837   4.1892

          k = 0.2509 0.2366 0.0000 (  5038 PWs)   bands (ev):

   -13.3439  -7.6269  -5.9691  -3.2442   2.1759   2.3347   3.9580   4.7086

          k = 0.2512 0.3316 0.0000 (  5053 PWs)   bands (ev):

   -12.8751  -7.1022  -6.7017  -4.0698   0.9588   3.1067   4.6925   5.5126

          k = 0.2474-0.7134 0.0000 (  5056 PWs)   bands (ev):

   -12.3668  -7.3439  -6.5367  -4.8382  -0.0942   4.0836   5.5550   6.4678

          k = 0.2478-0.6184 0.0000 (  5062 PWs)   bands (ev):

   -11.9974  -7.7728  -6.1299  -5.2720  -0.7493   5.0254   5.9137   6.9667

          k = 0.2481-0.5234 0.0000 (  5062 PWs)   bands (ev):

   -11.9973  -7.7728  -6.1299  -5.2721  -0.7492   5.0255   5.9137   6.9668

          k = 0.2485-0.4284 0.0000 (  5056 PWs)   bands (ev):

   -12.3667  -7.3438  -6.5367  -4.8384  -0.0941   4.0837   5.5550   6.4679

          k = 0.2488-0.3334 0.0000 (  5053 PWs)   bands (ev):

   -12.8750  -7.1022  -6.7015  -4.0702   0.9591   3.1068   4.6927   5.5129

          k = 0.2491-0.2384 0.0000 (  5038 PWs)   bands (ev):

   -13.3439  -7.6269  -5.9687  -3.2447   2.1762   2.3348   3.9581   4.7084

          k = 0.3326-0.1912 0.0000 (  5036 PWs)   bands (ev):

   -13.1180  -7.4836  -6.3731  -3.4308   2.1838   2.7662   4.4006   4.7606

          k = 0.3330-0.0962 0.0000 (  5043 PWs)   bands (ev):

   -13.3498  -7.7281  -5.6735  -3.6099   2.3742   3.1683   4.0605   4.7821

          k = 0.3333-0.0012 0.0000 (  5043 PWs)   bands (ev):

   -13.4303  -7.8133  -5.2348  -3.9218   2.2422   3.5426   4.1837   4.6492

          k = 0.3337 0.0938 0.0000 (  5043 PWs)   bands (ev):

   -13.3498  -7.7281  -5.6739  -3.6093   2.3742   3.1680   4.0603   4.7821

          k = 0.3340 0.1888 0.0000 (  5036 PWs)   bands (ev):

   -13.1181  -7.4836  -6.3735  -3.4302   2.1834   2.7661   4.4005   4.7614

          k = 0.3344 0.2838 0.0000 (  5056 PWs)   bands (ev):

   -12.7683  -7.1170  -6.9558  -3.8876   1.2457   3.3989   5.0456   5.1376

          k = 0.3306-0.7612 0.0000 (  5051 PWs)   bands (ev):

   -12.3691  -7.3092  -6.6993  -4.7783   0.5074   4.2436   5.7197   6.3188

          k = 0.3309-0.6662 0.0000 (  5056 PWs)   bands (ev):

   -12.0356  -7.3841  -6.3505  -5.6720   0.0243   5.1271   5.4992   7.1197

          k = 0.3313-0.5712 0.0000 (  5049 PWs)   bands (ev):

   -11.9028  -7.3161  -6.2108  -6.1026  -0.1473   5.2371   5.5468   7.5033

          k = 0.3316-0.4762 0.0000 (  5056 PWs)   bands (ev):

   -12.0355  -7.3839  -6.3505  -5.6723   0.0245   5.1272   5.4990   7.1201

          k = 0.3320-0.3812 0.0000 (  5051 PWs)   bands (ev):

   -12.3690  -7.3089  -6.6993  -4.7787   0.5077   4.2437   5.7197   6.3178

          k = 0.3323-0.2862 0.0000 (  5056 PWs)   bands (ev):

   -12.7682  -7.1169  -6.9554  -3.8882   1.2462   3.3990   5.0457   5.1369

          k = 0.4158-0.2390 0.0000 (  5035 PWs)   bands (ev):

   -12.5714  -7.3428  -7.0180  -3.8213   1.2046   3.9304   4.5677   5.6269

          k = 0.4162-0.1440 0.0000 (  5059 PWs)   bands (ev):

   -12.7769  -7.2118  -6.7835  -4.0995   1.9280   3.4487   4.9626   5.1905

          k = 0.4165-0.0490 0.0000 (  5060 PWs)   bands (ev):

   -12.8948  -7.3221  -6.0955  -4.7610   2.7444   3.1949   4.3835   5.6360

          k = 0.4168 0.0460 0.0000 (  5060 PWs)   bands (ev):

   -12.8948  -7.3221  -6.0959  -4.7605   2.7441   3.1949   4.3836   5.6360

          k = 0.4172 0.1410 0.0000 (  5059 PWs)   bands (ev):

   -12.7770  -7.2118  -6.7839  -4.0989   1.9275   3.4486   4.9626   5.1914

          k = 0.4175 0.2360 0.0000 (  5035 PWs)   bands (ev):

   -12.5716  -7.3431  -7.0180  -3.8206   1.2041   3.9302   4.5686   5.6267

          k = 0.4138-0.8090 0.0000 (  5051 PWs)   bands (ev):

   -12.3393  -7.6000  -6.7936  -4.2381   0.7730   4.5592   5.0455   6.3376

          k = 0.4141-0.7140 0.0000 (  5056 PWs)   bands (ev):

   -12.1537  -7.4734  -6.6014  -5.1276   0.6515   5.0947   5.7511   6.2900

          k = 0.4144-0.6190 0.0000 (  5053 PWs)   bands (ev):

   -12.0588  -6.9592  -6.4930  -6.1080   0.7097   4.9374   5.2030   7.2585

          k = 0.4148-0.5240 0.0000 (  5053 PWs)   bands (ev):

   -12.0588  -6.9588  -6.4930  -6.1084   0.7098   4.9372   5.2031   7.2588

          k = 0.4151-0.4290 0.0000 (  5056 PWs)   bands (ev):

   -12.1536  -7.4730  -6.6014  -5.1282   0.6519   5.0948   5.7508   6.2891

          k = 0.4155-0.3340 0.0000 (  5051 PWs)   bands (ev):

   -12.3392  -7.5997  -6.7936  -4.2388   0.7735   4.5593   5.0447   6.3376

          k =-0.4990 0.2868 0.0000 (  5038 PWs)   bands (ev):

   -12.3212  -7.7433  -6.8237  -3.9509   0.8258   4.4828   4.8331   6.2544

          k =-0.4986 0.3818 0.0000 (  5049 PWs)   bands (ev):

   -12.3444  -7.5434  -6.8354  -4.3060   1.0075   4.6124   5.0292   6.1749

          k =-0.4983 0.4768 0.0000 (  5054 PWs)   bands (ev):

   -12.3891  -6.9918  -6.8580  -5.1293   1.4579   4.3228   5.1653   6.3692

          k =-0.4979 0.5718 0.0000 (  5075 PWs)   bands (ev):

   -12.4107  -6.8701  -6.3826  -5.8584   1.7639   4.2125   4.6291   6.6902

          k =-0.4976 0.6668 0.0000 (  5054 PWs)   bands (ev):

   -12.3892  -6.9922  -6.8580  -5.1287   1.4575   4.3227   5.1656   6.3700

          k =-0.4973 0.7618 0.0000 (  5049 PWs)   bands (ev):

   -12.3445  -7.5437  -6.8354  -4.3053   1.0070   4.6123   5.0301   6.1750

          k =-0.5010-0.2832 0.0000 (  5038 PWs)   bands (ev):

   -12.3213  -7.7436  -6.8237  -3.9502   0.8252   4.4836   4.8330   6.2540

     the Fermi energy is    -1.2493 ev

!    total energy              =     -15.10423529 Ry
     estimated scf accuracy    <          2.6E-10 Ry
     smearing contrib. (-TS)   =      -0.00015416 Ry
     internal energy E=F+TS    =     -15.10408113 Ry

     The total energy is F=E-TS. E is the sum of the following terms:
     one-electron contribution =     -65.62201012 Ry
     hartree contribution      =      34.37184845 Ry
     xc contribution           =      -7.33892155 Ry
     ewald contribution        =      23.48500209 Ry

     convergence has been achieved in   8 iterations

     negative rho (up, down):  3.347E-05 0.000E+00

     Forces acting on atoms (cartesian axes, Ry/au):

     atom    1 type  1   force =    -0.00002032    0.00420267   -0.00608644
     atom    2 type  1   force =     0.00002504   -0.00408199    0.00166259
     atom    3 type  2   force =    -0.00000589   -0.00107477    0.00331750
     atom    4 type  2   force =     0.00000116    0.00095408    0.00110636
     The non-local contrib.  to forces
     atom    1 type  1   force =    -0.00130351   -0.35191341   -0.00527135
     atom    2 type  1   force =     0.00132507    0.35204625    0.00044645
     atom    3 type  2   force =    -0.00000154    0.00159624   -0.11474269
     atom    4 type  2   force =    -0.00001296   -0.00156010    0.11321302
     The ionic contribution  to forces
     atom    1 type  1   force =     0.00243561    0.69556167    0.03275358
     atom    2 type  1   force =    -0.00253042   -0.69529261   -0.03521959
     atom    3 type  2   force =     0.00001371   -0.00951132    2.57777252
     atom    4 type  2   force =     0.00008109    0.00924225   -2.57530652
     The local contribution  to forces
     atom    1 type  1   force =    -0.00118124   -0.34710757   -0.03374569
     atom    2 type  1   force =     0.00125957    0.34683207    0.03639368
     atom    3 type  2   force =    -0.00001800    0.00684024   -2.45971298
     atom    4 type  2   force =    -0.00006690   -0.00672815    2.46320264
     The core correction contribution to forces
     atom    1 type  1   force =     0.00002887    0.00766793    0.00018120
     atom    2 type  1   force =    -0.00002910   -0.00767373    0.00004635
     atom    3 type  2   force =     0.00000000    0.00000000    0.00000000
     atom    4 type  2   force =     0.00000000    0.00000000    0.00000000
     The Hubbard contrib.    to forces
     atom    1 type  1   force =     0.00000000    0.00000000    0.00000000
     atom    2 type  1   force =     0.00000000    0.00000000    0.00000000
     atom    3 type  2   force =     0.00000000    0.00000000    0.00000000
     atom    4 type  2   force =     0.00000000    0.00000000    0.00000000
     The SCF correction term to forces
     atom    1 type  1   force =     0.00000002   -0.00000599   -0.00000386
     atom    2 type  1   force =    -0.00000003    0.00000598   -0.00000398
     atom    3 type  2   force =    -0.00000000    0.00000002    0.00000098
     atom    4 type  2   force =    -0.00000001    0.00000004   -0.00000246

     Total force =     0.009404     Total SCF correction =     0.000010

     Writing all to output data dir tmpdir/pwscf.save/
 
     init_run     :     26.37s CPU     26.60s WALL (       1 calls)
     electrons    :     18.17s CPU     21.90s WALL (       1 calls)
     forces       :      0.45s CPU      0.56s WALL (       1 calls)

     Called by init_run:
     wfcinit      :      0.68s CPU      0.83s WALL (       1 calls)
     potinit      :     25.46s CPU     25.52s WALL (       1 calls)
     hinit0       :      0.18s CPU      0.19s WALL (       1 calls)

     Called by electrons:
     c_bands      :     13.97s CPU     16.57s WALL (       8 calls)
     sum_band     :      2.36s CPU      2.97s WALL (       8 calls)
     v_of_rho     :     26.93s CPU     27.44s WALL (       9 calls)
     newd         :      0.18s CPU      0.24s WALL (       9 calls)
     mix_rho      :      0.04s CPU      0.04s WALL (       8 calls)
     vdW_kernel   :     25.13s CPU     25.13s WALL (       1 calls)

     Called by c_bands:
     init_us_2    :      0.25s CPU      0.30s WALL (    1332 calls)
     init_us_2:cp :      0.25s CPU      0.30s WALL (    1332 calls)
     cegterg      :     13.42s CPU     15.94s WALL (     592 calls)

     Called by *egterg:
     cdiaghg      :      0.41s CPU      0.48s WALL (    2669 calls)
     h_psi        :     11.84s CPU     14.08s WALL (    2743 calls)
     s_psi        :      0.20s CPU      0.23s WALL (    2743 calls)
     g_psi        :      0.04s CPU      0.05s WALL (    2077 calls)

     Called by h_psi:
     h_psi:calbec :      0.45s CPU      0.55s WALL (    2743 calls)
     vloc_psi     :     11.02s CPU     13.10s WALL (    2743 calls)
     add_vuspsi   :      0.31s CPU      0.36s WALL (    2743 calls)

     General routines
     calbec       :      0.60s CPU      0.74s WALL (    3631 calls)
     fft          :      0.92s CPU      1.32s WALL (     626 calls)
     ffts         :      0.01s CPU      0.01s WALL (      17 calls)
     fftw         :     10.84s CPU     13.06s WALL (   33342 calls)
     interpolate  :      0.02s CPU      0.03s WALL (       9 calls)
 
     Parallel routines
 
     PWSCF        :     45.07s CPU     49.24s WALL

 
   This run was terminated on:  10:22:51   1Dec2023            

=------------------------------------------------------------------------------=
   JOB DONE.
=------------------------------------------------------------------------------=
