[0] MPI startup(): I_MPI_TCP_NETMASK variable has been removed from the product, its value is ignored


     Program PWSCF v.7.2 starts on 12Mar2024 at 17:22:39 

     This program is part of the open-source Quantum ESPRESSO suite
     for quantum simulation of materials; please cite
         "P. Giannozzi et al., J. Phys.:Condens. Matter 21 395502 (2009);
         "P. Giannozzi et al., J. Phys.:Condens. Matter 29 465901 (2017);
         "P. Giannozzi et al., J. Chem. Phys. 152 154105 (2020);
          URL http://www.quantum-espresso.org", 
     in publications or presentations arising from this work. More details at
     http://www.quantum-espresso.org/quote

     Parallel version (MPI), running on    16 processors

     MPI processes distributed on     1 nodes
     31549 MiB available memory on the printing compute node when the environment starts
 
     Reading input from espresso.pwi
Warning: card &CELL ignored
Warning: card / ignored

     Current dimensions of program PWSCF are:
     Max number of different atomic species (ntypx) = 10
     Max number of k-points (npk) =  40000
     Max angular momentum in pseudopotentials (lmaxx) =  4
     Message from routine setup:
     using ibrav=0 with symmetry is DISCOURAGED, use correct ibrav instead
 
     R & G space division:  proc/nbgrp/npool/nimage =      16
     Subspace diagonalization in iterative solution of the eigenvalue problem:
     a serial algorithm will be used

 
     Parallelization info
     --------------------
     sticks:   dense  smooth     PW     G-vecs:    dense   smooth      PW
     Min          67      34     10                 7115     2515     444
     Max          68      36     11                 7126     2519     463
     Sum        1085     551    167               113933    40273    7201
 
     Using Slab Decomposition
 


     bravais-lattice index     =            0
     lattice parameter (alat)  =       5.6973  a.u.
     unit-cell volume          =     642.1518 (a.u.)^3
     number of atoms/cell      =            4
     number of atomic types    =            2
     number of electrons       =         8.00
     number of Kohn-Sham states=            8
     kinetic-energy cutoff     =      60.0000  Ry
     charge density cutoff     =     480.0000  Ry
     scf convergence threshold =      1.0E-06
     mixing beta               =       0.7000
     number of iterations used =            8  plain     mixing
     Exchange-correlation=  SLA  PW   PBX  PBC
                           (   1   4   3   4   0   0   0)

     celldm(1)=   5.697334  celldm(2)=   0.000000  celldm(3)=   0.000000
     celldm(4)=   0.000000  celldm(5)=   0.000000  celldm(6)=   0.000000

     crystal axes: (cart. coord. in units of alat)
               a(1) = (   0.999994  -0.003591   0.000000 )  
               a(2) = (   0.503167   0.875437   0.000000 )  
               a(3) = (   0.000000   0.000000   3.958265 )  

     reciprocal axes: (cart. coord. in units 2 pi/alat)
               b(1) = (  0.997946 -0.573581  0.000000 )  
               b(2) = (  0.004094  1.139933  0.000000 )  
               b(3) = (  0.000000  0.000000  0.252636 )  


     PseudoPot. # 1 for B  read from file:
     /home/krojas/QE/pseudo/b_pbe_v1.4.uspp.F.UPF
     MD5 check sum: cc6de2960df11db49a60e589f9ebb39b
     Pseudo is Ultrasoft + core correction, Zval =  3.0
     Generated by new atomic code, or converted to UPF format
     Using radial grid of  781 points,  4 beta functions with: 
                l(1) =   0
                l(2) =   0
                l(3) =   1
                l(4) =   1
     Q(r) pseudized with  8 coefficients,  rinner =    1.100   1.100   1.100


     PseudoPot. # 2 for H  read from file:
     /home/krojas/QE/pseudo/h_pbe_v1.4.uspp.F.UPF
     MD5 check sum: 761ae9a214b05c3daf00ab9f6b793d6f
     Pseudo is Ultrasoft, Zval =  1.0
     Generated by new atomic code, or converted to UPF format
     Using radial grid of  615 points,  2 beta functions with: 
                l(1) =   0
                l(2) =   0
     Q(r) pseudized with  8 coefficients,  rinner =    0.700

     atomic species   valence    mass     pseudopotential
        B              3.00    10.81000     B ( 1.00)
        H              1.00     1.00800     H ( 1.00)

      2 Sym. Ops. (no inversion) found



   Cartesian axes

     site n.     atom                  positions (alat units)
         1           B   tau(   1) = (   0.0000000   0.0000000   1.9791325  )
         2           B   tau(   2) = (   0.5009657   0.2715580   1.9791325  )
         3           H   tau(   3) = (   0.5020846   0.5735104   2.2998349  )
         4           H   tau(   4) = (   0.5020846   0.5735104   1.6584302  )

     number of k points=    74  Gaussian smearing, width (Ry)=  0.0100
                       cart. coord. in units 2pi/alat
        k(    1) = (   0.0000000   0.0000000   0.0000000), wk =   0.0138889
        k(    2) = (   0.0003412   0.0949944   0.0000000), wk =   0.0277778
        k(    3) = (   0.0006823   0.1899889   0.0000000), wk =   0.0277778
        k(    4) = (   0.0010235   0.2849833   0.0000000), wk =   0.0277778
        k(    5) = (   0.0013646   0.3799777   0.0000000), wk =   0.0277778
        k(    6) = (   0.0017058   0.4749722   0.0000000), wk =   0.0277778
        k(    7) = (  -0.0020470  -0.5699666   0.0000000), wk =   0.0138889
        k(    8) = (   0.0831622  -0.0477984   0.0000000), wk =   0.0277778
        k(    9) = (   0.0835034   0.0471960   0.0000000), wk =   0.0277778
        k(   10) = (   0.0838445   0.1421905   0.0000000), wk =   0.0277778
        k(   11) = (   0.0841857   0.2371849   0.0000000), wk =   0.0277778
        k(   12) = (   0.0845269   0.3321793   0.0000000), wk =   0.0277778
        k(   13) = (   0.0848680   0.4271738   0.0000000), wk =   0.0277778
        k(   14) = (   0.0811152  -0.6177650   0.0000000), wk =   0.0277778
        k(   15) = (   0.0814564  -0.5227706   0.0000000), wk =   0.0277778
        k(   16) = (   0.0817976  -0.4277762   0.0000000), wk =   0.0277778
        k(   17) = (   0.0821387  -0.3327817   0.0000000), wk =   0.0277778
        k(   18) = (   0.0824799  -0.2377873   0.0000000), wk =   0.0277778
        k(   19) = (   0.0828210  -0.1427928   0.0000000), wk =   0.0277778
        k(   20) = (   0.1663244  -0.0955968   0.0000000), wk =   0.0277778
        k(   21) = (   0.1666656  -0.0006024   0.0000000), wk =   0.0277778
        k(   22) = (   0.1670067   0.0943921   0.0000000), wk =   0.0277778
        k(   23) = (   0.1673479   0.1893865   0.0000000), wk =   0.0277778
        k(   24) = (   0.1676891   0.2843809   0.0000000), wk =   0.0277778
        k(   25) = (   0.1680302   0.3793754   0.0000000), wk =   0.0277778
        k(   26) = (   0.1642774  -0.6655634   0.0000000), wk =   0.0277778
        k(   27) = (   0.1646186  -0.5705690   0.0000000), wk =   0.0277778
        k(   28) = (   0.1649598  -0.4755746   0.0000000), wk =   0.0277778
        k(   29) = (   0.1653009  -0.3805801   0.0000000), wk =   0.0277778
        k(   30) = (   0.1656421  -0.2855857   0.0000000), wk =   0.0277778
        k(   31) = (   0.1659833  -0.1905913   0.0000000), wk =   0.0277778
        k(   32) = (   0.2494866  -0.1433952   0.0000000), wk =   0.0277778
        k(   33) = (   0.2498278  -0.0484008   0.0000000), wk =   0.0277778
        k(   34) = (   0.2501689   0.0465936   0.0000000), wk =   0.0277778
        k(   35) = (   0.2505101   0.1415881   0.0000000), wk =   0.0277778
        k(   36) = (   0.2508513   0.2365825   0.0000000), wk =   0.0277778
        k(   37) = (   0.2511924   0.3315769   0.0000000), wk =   0.0277778
        k(   38) = (   0.2474397  -0.7133618   0.0000000), wk =   0.0277778
        k(   39) = (   0.2477808  -0.6183674   0.0000000), wk =   0.0277778
        k(   40) = (   0.2481220  -0.5233730   0.0000000), wk =   0.0277778
        k(   41) = (   0.2484631  -0.4283785   0.0000000), wk =   0.0277778
        k(   42) = (   0.2488043  -0.3333841   0.0000000), wk =   0.0277778
        k(   43) = (   0.2491455  -0.2383897   0.0000000), wk =   0.0277778
        k(   44) = (   0.3326488  -0.1911936   0.0000000), wk =   0.0277778
        k(   45) = (   0.3329900  -0.0961992   0.0000000), wk =   0.0277778
        k(   46) = (   0.3333312  -0.0012048   0.0000000), wk =   0.0277778
        k(   47) = (   0.3336723   0.0937897   0.0000000), wk =   0.0277778
        k(   48) = (   0.3340135   0.1887841   0.0000000), wk =   0.0277778
        k(   49) = (   0.3343546   0.2837785   0.0000000), wk =   0.0277778
        k(   50) = (   0.3306019  -0.7611603   0.0000000), wk =   0.0277778
        k(   51) = (   0.3309430  -0.6661658   0.0000000), wk =   0.0277778
        k(   52) = (   0.3312842  -0.5711714   0.0000000), wk =   0.0277778
        k(   53) = (   0.3316253  -0.4761769   0.0000000), wk =   0.0277778
        k(   54) = (   0.3319665  -0.3811825   0.0000000), wk =   0.0277778
        k(   55) = (   0.3323077  -0.2861881   0.0000000), wk =   0.0277778
        k(   56) = (   0.4158110  -0.2389921   0.0000000), wk =   0.0277778
        k(   57) = (   0.4161522  -0.1439976   0.0000000), wk =   0.0277778
        k(   58) = (   0.4164934  -0.0490032   0.0000000), wk =   0.0277778
        k(   59) = (   0.4168345   0.0459913   0.0000000), wk =   0.0277778
        k(   60) = (   0.4171757   0.1409857   0.0000000), wk =   0.0277778
        k(   61) = (   0.4175169   0.2359801   0.0000000), wk =   0.0277778
        k(   62) = (   0.4137641  -0.8089587   0.0000000), wk =   0.0277778
        k(   63) = (   0.4141052  -0.7139642   0.0000000), wk =   0.0277778
        k(   64) = (   0.4144464  -0.6189698   0.0000000), wk =   0.0277778
        k(   65) = (   0.4147876  -0.5239754   0.0000000), wk =   0.0277778
        k(   66) = (   0.4151287  -0.4289809   0.0000000), wk =   0.0277778
        k(   67) = (   0.4154699  -0.3339865   0.0000000), wk =   0.0277778
        k(   68) = (  -0.4989732   0.2867905   0.0000000), wk =   0.0138889
        k(   69) = (  -0.4986321   0.3817849   0.0000000), wk =   0.0277778
        k(   70) = (  -0.4982909   0.4767793   0.0000000), wk =   0.0277778
        k(   71) = (  -0.4979498   0.5717738   0.0000000), wk =   0.0277778
        k(   72) = (  -0.4976086   0.6667682   0.0000000), wk =   0.0277778
        k(   73) = (  -0.4972674   0.7617626   0.0000000), wk =   0.0277778
        k(   74) = (  -0.5010202  -0.2831762   0.0000000), wk =   0.0138889

     Dense  grid:   113933 G-vectors     FFT dimensions: (  40,  45, 160)

     Smooth grid:    40273 G-vectors     FFT dimensions: (  30,  30, 120)

     Estimated max dynamical RAM per process >      13.53 MB

     Estimated total dynamical RAM >     216.40 MB

     Initial potential from superposition of free atoms

     starting charge       7.9994, renormalised to       8.0000

     negative rho (up, down):  1.264E-05 0.000E+00
     Starting wfcs are   10 randomized atomic wfcs

     total cpu time spent up to now is        0.6 secs

     Self-consistent Calculation

     iteration #  1     ecut=    60.00 Ry     beta= 0.70
     Davidson diagonalization with overlap
     ethr =  1.00E-02,  avg # of iterations =  3.8

     negative rho (up, down):  1.227E-05 0.000E+00

     total cpu time spent up to now is        1.3 secs

     total energy              =     -15.01302116 Ry
     estimated scf accuracy    <       0.32449763 Ry

     iteration #  2     ecut=    60.00 Ry     beta= 0.70
     Davidson diagonalization with overlap
     ethr =  4.06E-03,  avg # of iterations =  3.6

     negative rho (up, down):  2.159E-05 0.000E+00

     total cpu time spent up to now is        1.9 secs

     total energy              =     -15.06608567 Ry
     estimated scf accuracy    <       0.01758904 Ry

     iteration #  3     ecut=    60.00 Ry     beta= 0.70
     Davidson diagonalization with overlap
     ethr =  2.20E-04,  avg # of iterations =  5.2

     negative rho (up, down):  3.138E-05 0.000E+00

     total cpu time spent up to now is        2.6 secs

     total energy              =     -15.06907599 Ry
     estimated scf accuracy    <       0.00052474 Ry

     iteration #  4     ecut=    60.00 Ry     beta= 0.70
     Davidson diagonalization with overlap
     ethr =  6.56E-06,  avg # of iterations =  6.0

     negative rho (up, down):  3.361E-05 0.000E+00

     total cpu time spent up to now is        3.4 secs

     total energy              =     -15.06915653 Ry
     estimated scf accuracy    <       0.00000521 Ry

     iteration #  5     ecut=    60.00 Ry     beta= 0.70
     Davidson diagonalization with overlap
     ethr =  6.51E-08,  avg # of iterations =  3.2

     negative rho (up, down):  3.423E-05 0.000E+00

     total cpu time spent up to now is        4.0 secs

     End of self-consistent calculation

          k = 0.0000 0.0000 0.0000 (  5017 PWs)   bands (ev):

   -14.4659  -8.7457  -2.9748  -0.5136   0.9716   2.3892   3.0052   5.6571

          k = 0.0003 0.0950 0.0000 (  4979 PWs)   bands (ev):

   -14.3670  -8.6278  -3.3672  -0.7657   1.0933   2.5308   3.1305   5.7811

          k = 0.0007 0.1900 0.0000 (  4988 PWs)   bands (ev):

   -14.0752  -8.2792  -4.3669  -1.3417   1.4729   2.9327   3.5151   4.0469

          k = 0.0010 0.2850 0.0000 (  5020 PWs)   bands (ev):

   -13.6085  -7.7193  -5.6451  -1.9654   2.0038   2.1090   3.7320   4.1320

          k = 0.0014 0.3800 0.0000 (  5038 PWs)   bands (ev):

   -13.0132  -6.9989  -6.9327  -2.4771   0.2664   2.9400   4.7156   4.7321

          k = 0.0017 0.4750 0.0000 (  5038 PWs)   bands (ev):

   -12.4137  -7.9849  -6.2611  -2.8041  -1.1007   3.6891   5.1463   5.9771

          k =-0.0020-0.5700 0.0000 (  5036 PWs)   bands (ev):

   -12.1218  -8.4333  -5.8933  -2.9159  -1.6805   3.9120   5.9273   6.5377

          k = 0.0832-0.0478 0.0000 (  5007 PWs)   bands (ev):

   -14.3670  -8.6449  -3.2569  -0.9063   1.1074   2.5310   3.1458   5.7235

          k = 0.0835 0.0472 0.0000 (  5007 PWs)   bands (ev):

   -14.3670  -8.6449  -3.2570  -0.9062   1.1074   2.5310   3.1459   5.7240

          k = 0.0838 0.1422 0.0000 (  5003 PWs)   bands (ev):

   -14.1719  -8.4133  -3.9561  -1.3184   1.3583   2.8062   3.4024   4.9257

          k = 0.0842 0.2372 0.0000 (  5010 PWs)   bands (ev):

   -13.7926  -7.9621  -5.0636  -1.9673   1.8732   2.8343   3.5215   3.9228

          k = 0.0845 0.3322 0.0000 (  5029 PWs)   bands (ev):

   -13.2589  -7.3240  -6.3087  -2.5953   1.1087   2.6329   4.2907   4.6506

          k = 0.0849 0.4272 0.0000 (  5030 PWs)   bands (ev):

   -12.6468  -7.4651  -6.5851  -3.0562  -0.4272   3.5367   5.2556   5.4060

          k = 0.0811-0.6178 0.0000 (  5055 PWs)   bands (ev):

   -12.1605  -8.2429  -5.9879  -3.2952  -1.4313   4.1915   5.8323   6.7283

          k = 0.0815-0.5228 0.0000 (  5055 PWs)   bands (ev):

   -12.1605  -8.2429  -5.9879  -3.2952  -1.4312   4.1915   5.8324   6.7283

          k = 0.0818-0.4278 0.0000 (  5030 PWs)   bands (ev):

   -12.6468  -7.4651  -6.5850  -3.0562  -0.4271   3.5367   5.2556   5.4061

          k = 0.0821-0.3328 0.0000 (  5029 PWs)   bands (ev):

   -13.2588  -7.3240  -6.3087  -2.5953   1.1087   2.6329   4.2907   4.6505

          k = 0.0825-0.2378 0.0000 (  5010 PWs)   bands (ev):

   -13.7926  -7.9621  -5.0635  -1.9674   1.8733   2.8344   3.5215   3.9226

          k = 0.0828-0.1428 0.0000 (  5003 PWs)   bands (ev):

   -14.1719  -8.4133  -3.9560  -1.3186   1.3583   2.8062   3.4024   4.9260

          k = 0.1663-0.0956 0.0000 (  5007 PWs)   bands (ev):

   -14.0767  -8.3526  -4.0231  -1.7823   1.5203   2.9442   3.5713   5.3900

          k = 0.1667-0.0006 0.0000 (  4991 PWs)   bands (ev):

   -14.1725  -8.4642  -3.6638  -1.6892   1.3931   2.8131   3.4416   6.0411

          k = 0.1670 0.0944 0.0000 (  5007 PWs)   bands (ev):

   -14.0767  -8.3526  -4.0234  -1.7819   1.5203   2.9441   3.5713   5.3896

          k = 0.1673 0.1894 0.0000 (  5031 PWs)   bands (ev):

   -13.7952  -8.0242  -4.8456  -2.2449   1.9067   3.1793   3.8495   3.9649

          k = 0.1677 0.2844 0.0000 (  5037 PWs)   bands (ev):

   -13.3484  -7.5025  -5.8486  -2.9835   1.8755   2.5558   4.1704   4.6293

          k = 0.1680 0.3794 0.0000 (  5046 PWs)   bands (ev):

   -12.7870  -6.8842  -6.8458  -3.6642   0.3768   3.4337   5.1081   5.5051

          k = 0.1643-0.6656 0.0000 (  5071 PWs)   bands (ev):

   -12.2380  -7.7582  -6.2013  -4.1039  -0.7943   4.4032   6.2207   6.2894

          k = 0.1646-0.5706 0.0000 (  5067 PWs)   bands (ev):

   -11.9804  -8.1319  -5.8978  -4.2527  -1.2764   4.9265   6.9276   7.0584

          k = 0.1650-0.4756 0.0000 (  5071 PWs)   bands (ev):

   -12.2380  -7.7582  -6.2013  -4.1040  -0.7943   4.4033   6.2208   6.2895

          k = 0.1653-0.3806 0.0000 (  5048 PWs)   bands (ev):

   -12.7870  -6.8842  -6.8458  -3.6643   0.3769   3.4337   5.1082   5.5054

          k = 0.1656-0.2856 0.0000 (  5037 PWs)   bands (ev):

   -13.3483  -7.5025  -5.8485  -2.9837   1.8756   2.5558   4.1705   4.6293

          k = 0.1660-0.1906 0.0000 (  5031 PWs)   bands (ev):

   -13.7951  -8.0242  -4.8454  -2.2453   1.9067   3.1795   3.8497   3.9649

          k = 0.2495-0.1434 0.0000 (  5031 PWs)   bands (ev):

   -13.6176  -7.9036  -5.1103  -2.6640   2.2107   3.3623   4.1515   4.2776

          k = 0.2498-0.0484 0.0000 (  5026 PWs)   bands (ev):

   -13.7973  -8.1059  -4.4820  -2.6977   1.9518   3.3530   4.0186   5.1974

          k = 0.2502 0.0466 0.0000 (  5026 PWs)   bands (ev):

   -13.7974  -8.1059  -4.4822  -2.6974   1.9518   3.3529   4.0184   5.1970

          k = 0.2505 0.1416 0.0000 (  5031 PWs)   bands (ev):

   -13.6176  -7.9036  -5.1107  -2.6635   2.2106   3.3621   4.1512   4.2777

          k = 0.2509 0.2366 0.0000 (  5038 PWs)   bands (ev):

   -13.2730  -7.5166  -5.8810  -3.1401   2.2980   2.7266   4.3689   4.7922

          k = 0.2512 0.3316 0.0000 (  5053 PWs)   bands (ev):

   -12.8019  -6.9896  -6.6171  -3.9792   1.0446   3.4924   5.1263   5.5999

          k = 0.2474-0.7134 0.0000 (  5056 PWs)   bands (ev):

   -12.2908  -7.2618  -6.4211  -4.7576  -0.0208   4.4421   5.9520   6.5828

          k = 0.2478-0.6184 0.0000 (  5062 PWs)   bands (ev):

   -11.9187  -7.6935  -6.0104  -5.1961  -0.6830   5.3129   6.1898   7.2850

          k = 0.2481-0.5234 0.0000 (  5062 PWs)   bands (ev):

   -11.9187  -7.6935  -6.0104  -5.1962  -0.6829   5.3130   6.1898   7.2849

          k = 0.2485-0.4284 0.0000 (  5056 PWs)   bands (ev):

   -12.2907  -7.2617  -6.4210  -4.7577  -0.0207   4.4422   5.9518   6.5830

          k = 0.2488-0.3334 0.0000 (  5053 PWs)   bands (ev):

   -12.8018  -6.9896  -6.6169  -3.9795   1.0448   3.4925   5.1265   5.5999

          k = 0.2491-0.2384 0.0000 (  5038 PWs)   bands (ev):

   -13.2729  -7.5166  -5.8807  -3.1406   2.2984   2.7267   4.3690   4.7921

          k = 0.3326-0.1912 0.0000 (  5036 PWs)   bands (ev):

   -13.0452  -7.3738  -6.2921  -3.3209   2.3011   3.1605   4.7924   4.8163

          k = 0.3330-0.0962 0.0000 (  5043 PWs)   bands (ev):

   -13.2782  -7.6190  -5.5878  -3.5032   2.7780   3.3587   4.3976   4.8719

          k = 0.3333-0.0012 0.0000 (  5043 PWs)   bands (ev):

   -13.3591  -7.7044  -5.1456  -3.8200   2.6473   4.0025   4.2384   4.7402

          k = 0.3337 0.0938 0.0000 (  5043 PWs)   bands (ev):

   -13.2782  -7.6190  -5.5882  -3.5026   2.7780   3.3583   4.3974   4.8723

          k = 0.3340 0.1888 0.0000 (  5036 PWs)   bands (ev):

   -13.0453  -7.3738  -6.2925  -3.3203   2.3007   3.1604   4.7932   4.8162

          k = 0.3344 0.2838 0.0000 (  5056 PWs)   bands (ev):

   -12.6936  -7.0055  -6.8783  -3.7860   1.3410   3.7804   5.1830   5.4740

          k = 0.3306-0.7612 0.0000 (  5051 PWs)   bands (ev):

   -12.2918  -7.2325  -6.5864  -4.6898   0.5879   4.6037   6.0923   6.3910

          k = 0.3309-0.6662 0.0000 (  5056 PWs)   bands (ev):

   -11.9558  -7.3058  -6.2350  -5.5954   0.0932   5.4356   5.7454   7.4386

          k = 0.3313-0.5712 0.0000 (  5049 PWs)   bands (ev):

   -11.8220  -7.2346  -6.0939  -6.0330  -0.0832   5.4709   5.8070   7.8499

          k = 0.3316-0.4762 0.0000 (  5056 PWs)   bands (ev):

   -11.9558  -7.3057  -6.2350  -5.5956   0.0934   5.4358   5.7453   7.4386

          k = 0.3320-0.3812 0.0000 (  5051 PWs)   bands (ev):

   -12.2917  -7.2322  -6.5864  -4.6902   0.5882   4.6038   6.0922   6.3900

          k = 0.3323-0.2862 0.0000 (  5056 PWs)   bands (ev):

   -12.6935  -7.0055  -6.8780  -3.7866   1.3414   3.7805   5.1821   5.4741

          k = 0.4158-0.2390 0.0000 (  5035 PWs)   bands (ev):

   -12.4946  -7.2705  -6.9078  -3.7131   1.3026   4.2900   4.6119   6.0613

          k = 0.4162-0.1440 0.0000 (  5059 PWs)   bands (ev):

   -12.7016  -7.1018  -6.7080  -3.9956   2.0262   3.8385   5.2247   5.3923

          k = 0.4165-0.0490 0.0000 (  5060 PWs)   bands (ev):

   -12.8203  -7.2125  -6.0161  -4.6648   2.8206   3.5885   4.8052   5.7252

          k = 0.4168 0.0460 0.0000 (  5060 PWs)   bands (ev):

   -12.8203  -7.2125  -6.0165  -4.6644   2.8203   3.5884   4.8052   5.7253

          k = 0.4172 0.1410 0.0000 (  5059 PWs)   bands (ev):

   -12.7016  -7.1018  -6.7084  -3.9950   2.0257   3.8385   5.2255   5.3922

          k = 0.4175 0.2360 0.0000 (  5035 PWs)   bands (ev):

   -12.4947  -7.2708  -6.9078  -3.7125   1.3021   4.2900   4.6126   6.0612

          k = 0.4138-0.8090 0.0000 (  5051 PWs)   bands (ev):

   -12.2607  -7.5297  -6.6823  -4.1369   0.8635   4.8573   5.1302   6.7302

          k = 0.4141-0.7140 0.0000 (  5056 PWs)   bands (ev):

   -12.0737  -7.4022  -6.4889  -5.0381   0.7296   5.4038   6.0034   6.3459

          k = 0.4144-0.6190 0.0000 (  5053 PWs)   bands (ev):

   -11.9783  -6.8834  -6.3797  -6.0292   0.7746   5.1840   5.5158   7.6045

          k = 0.4148-0.5240 0.0000 (  5053 PWs)   bands (ev):

   -11.9782  -6.8830  -6.3797  -6.0296   0.7747   5.1838   5.5158   7.6045

          k = 0.4151-0.4290 0.0000 (  5056 PWs)   bands (ev):

   -12.0736  -7.4019  -6.4889  -5.0387   0.7300   5.4040   6.0030   6.3450

          k = 0.4155-0.3340 0.0000 (  5051 PWs)   bands (ev):

   -12.2606  -7.5294  -6.6823  -4.1376   0.8640   4.8572   5.1297   6.7301

          k =-0.4990 0.2868 0.0000 (  5038 PWs)   bands (ev):

   -12.2420  -7.6751  -6.7130  -3.8433   0.9207   4.5060   5.1596   6.6902

          k =-0.4986 0.3818 0.0000 (  5049 PWs)   bands (ev):

   -12.2656  -7.4739  -6.7246  -4.2040   1.0984   4.9624   5.0611   6.5703

          k =-0.4983 0.4768 0.0000 (  5054 PWs)   bands (ev):

   -12.3109  -6.9187  -6.7476  -5.0371   1.5345   4.6919   5.4918   6.4246

          k =-0.4979 0.5718 0.0000 (  5075 PWs)   bands (ev):

   -12.3327  -6.7589  -6.3099  -5.7690   1.8244   4.5864   4.9421   6.7894

          k =-0.4976 0.6668 0.0000 (  5054 PWs)   bands (ev):

   -12.3109  -6.9191  -6.7476  -5.0365   1.5341   4.6918   5.4921   6.4254

          k =-0.4973 0.7618 0.0000 (  5049 PWs)   bands (ev):

   -12.2657  -7.4742  -6.7246  -4.2034   1.0980   4.9623   5.0619   6.5704

          k =-0.5010-0.2832 0.0000 (  5038 PWs)   bands (ev):

   -12.2421  -7.6754  -6.7130  -3.8426   0.9202   4.5068   5.1594   6.6901

     the Fermi energy is    -1.1635 ev

!    total energy              =     -15.06915940 Ry
     estimated scf accuracy    <       0.00000030 Ry
     smearing contrib. (-TS)   =      -0.00016731 Ry
     internal energy E=F+TS    =     -15.06899209 Ry

     The total energy is F=E-TS. E is the sum of the following terms:
     one-electron contribution =     -65.66861599 Ry
     hartree contribution      =      34.41493724 Ry
     xc contribution           =      -7.30062490 Ry
     ewald contribution        =      23.48531157 Ry

     convergence has been achieved in   5 iterations

     negative rho (up, down):  3.423E-05 0.000E+00

     Forces acting on atoms (cartesian axes, Ry/au):

     atom    1 type  1   force =    -0.00003728   -0.00052263    0.00000000
     atom    2 type  1   force =     0.00004111    0.00054449    0.00000000
     atom    3 type  2   force =    -0.00000192   -0.00001093   -0.00005122
     atom    4 type  2   force =    -0.00000192   -0.00001093    0.00005122
     The non-local contrib.  to forces
     atom    1 type  1   force =    -0.00127685   -0.34474907    0.00000000
     atom    2 type  1   force =     0.00129869    0.34478719    0.00000000
     atom    3 type  2   force =    -0.00000729    0.00000435   -0.11092176
     atom    4 type  2   force =    -0.00000729    0.00000435    0.11092176
     The ionic contribution  to forces
     atom    1 type  1   force =     0.00243489    0.69536125    0.00000000
     atom    2 type  1   force =    -0.00253035   -0.69527768    0.00000000
     atom    3 type  2   force =     0.00004773   -0.00004178    2.57657827
     atom    4 type  2   force =     0.00004773   -0.00004178   -2.57657827
     The local contribution  to forces
     atom    1 type  1   force =    -0.00122638   -0.35847179    0.00000000
     atom    2 type  1   force =     0.00130333    0.35837341    0.00000000
     atom    3 type  2   force =    -0.00004270    0.00002701   -2.46566445
     atom    4 type  2   force =    -0.00004270    0.00002701    2.46566445
     The core correction contribution to forces
     atom    1 type  1   force =     0.00002704    0.00714204   -0.00000000
     atom    2 type  1   force =    -0.00002742   -0.00714345   -0.00000000
     atom    3 type  2   force =     0.00000000    0.00000000    0.00000000
     atom    4 type  2   force =     0.00000000    0.00000000    0.00000000
     The Hubbard contrib.    to forces
     atom    1 type  1   force =     0.00000000    0.00000000    0.00000000
     atom    2 type  1   force =     0.00000000    0.00000000    0.00000000
     atom    3 type  2   force =     0.00000000    0.00000000    0.00000000
     atom    4 type  2   force =     0.00000000    0.00000000    0.00000000
     The SCF correction term to forces
     atom    1 type  1   force =     0.00000395    0.00019492   -0.00000000
     atom    2 type  1   force =    -0.00000323   -0.00019500   -0.00000000
     atom    3 type  2   force =     0.00000025   -0.00000053   -0.00004328
     atom    4 type  2   force =     0.00000025   -0.00000053    0.00004328

     Total force =     0.000760     Total SCF correction =     0.000282
     SCF correction compared to forces is large: reduce conv_thr to get better values

     Writing all to output data dir ./TMPDIR/pwscf.save/
 
     init_run     :      0.44s CPU      0.47s WALL (       1 calls)
     electrons    :      3.24s CPU      3.46s WALL (       1 calls)
     forces       :      0.14s CPU      0.15s WALL (       1 calls)

     Called by init_run:
     wfcinit      :      0.20s CPU      0.21s WALL (       1 calls)
     potinit      :      0.07s CPU      0.07s WALL (       1 calls)
     hinit0       :      0.15s CPU      0.17s WALL (       1 calls)

     Called by electrons:
     c_bands      :      2.72s CPU      2.86s WALL (       5 calls)
     sum_band     :      0.42s CPU      0.46s WALL (       5 calls)
     v_of_rho     :      0.06s CPU      0.06s WALL (       6 calls)
     newd         :      0.03s CPU      0.04s WALL (       6 calls)
     mix_rho      :      0.00s CPU      0.00s WALL (       5 calls)

     Called by c_bands:
     init_us_2    :      0.07s CPU      0.07s WALL (     888 calls)
     init_us_2:cp :      0.07s CPU      0.07s WALL (     888 calls)
     cegterg      :      2.60s CPU      2.73s WALL (     370 calls)

     Called by *egterg:
     cdiaghg      :      0.20s CPU      0.21s WALL (    1985 calls)
     h_psi        :      2.22s CPU      2.34s WALL (    2059 calls)
     s_psi        :      0.05s CPU      0.05s WALL (    2059 calls)
     g_psi        :      0.02s CPU      0.02s WALL (    1615 calls)

     Called by h_psi:
     h_psi:calbec :      0.09s CPU      0.09s WALL (    2059 calls)
     vloc_psi     :      2.06s CPU      2.16s WALL (    2059 calls)
     add_vuspsi   :      0.05s CPU      0.06s WALL (    2059 calls)

     General routines
     calbec       :      0.12s CPU      0.13s WALL (    2725 calls)
     fft          :      0.08s CPU      0.09s WALL (      87 calls)
     ffts         :      0.00s CPU      0.00s WALL (      11 calls)
     fftw         :      2.05s CPU      2.16s WALL (   23086 calls)
     interpolate  :      0.00s CPU      0.00s WALL (       6 calls)
 
     Parallel routines
 
     PWSCF        :      3.97s CPU      4.89s WALL

 
   This run was terminated on:  17:22:44  12Mar2024            

=------------------------------------------------------------------------------=
   JOB DONE.
=------------------------------------------------------------------------------=
