[0] MPI startup(): I_MPI_TCP_NETMASK variable has been removed from the product, its value is ignored


     Program PWSCF v.7.2 starts on 12Mar2024 at 17:36:39 

     This program is part of the open-source Quantum ESPRESSO suite
     for quantum simulation of materials; please cite
         "P. Giannozzi et al., J. Phys.:Condens. Matter 21 395502 (2009);
         "P. Giannozzi et al., J. Phys.:Condens. Matter 29 465901 (2017);
         "P. Giannozzi et al., J. Chem. Phys. 152 154105 (2020);
          URL http://www.quantum-espresso.org", 
     in publications or presentations arising from this work. More details at
     http://www.quantum-espresso.org/quote

     Parallel version (MPI), running on    16 processors

     MPI processes distributed on     1 nodes
     31539 MiB available memory on the printing compute node when the environment starts
 
     Reading input from espresso.pwi
Warning: card &CELL ignored
Warning: card / ignored

     Current dimensions of program PWSCF are:
     Max number of different atomic species (ntypx) = 10
     Max number of k-points (npk) =  40000
     Max angular momentum in pseudopotentials (lmaxx) =  4
 
     R & G space division:  proc/nbgrp/npool/nimage =      16
     Subspace diagonalization in iterative solution of the eigenvalue problem:
     a serial algorithm will be used

 
     Parallelization info
     --------------------
     sticks:   dense  smooth     PW     G-vecs:    dense   smooth      PW
     Min          67      34     10                 7115     2515     444
     Max          68      36     11                 7126     2519     463
     Sum        1085     551    167               113933    40273    7201
 
     Using Slab Decomposition
 


     bravais-lattice index     =            0
     lattice parameter (alat)  =       5.6973  a.u.
     unit-cell volume          =     642.1518 (a.u.)^3
     number of atoms/cell      =            4
     number of atomic types    =            2
     number of electrons       =         8.00
     number of Kohn-Sham states=            8
     kinetic-energy cutoff     =      60.0000  Ry
     charge density cutoff     =     480.0000  Ry
     scf convergence threshold =      1.0E-06
     mixing beta               =       0.7000
     number of iterations used =            8  plain     mixing
     Exchange-correlation=  SLA  PW   PBX  PBC
                           (   1   4   3   4   0   0   0)

     celldm(1)=   5.697334  celldm(2)=   0.000000  celldm(3)=   0.000000
     celldm(4)=   0.000000  celldm(5)=   0.000000  celldm(6)=   0.000000

     crystal axes: (cart. coord. in units of alat)
               a(1) = (   0.999994  -0.003591   0.000000 )  
               a(2) = (   0.503167   0.875437   0.000000 )  
               a(3) = (   0.000000   0.000000   3.958265 )  

     reciprocal axes: (cart. coord. in units 2 pi/alat)
               b(1) = (  0.997946 -0.573581  0.000000 )  
               b(2) = (  0.004094  1.139933  0.000000 )  
               b(3) = (  0.000000  0.000000  0.252636 )  


     PseudoPot. # 1 for B  read from file:
     /home/krojas/QE/pseudo/b_pbe_v1.4.uspp.F.UPF
     MD5 check sum: cc6de2960df11db49a60e589f9ebb39b
     Pseudo is Ultrasoft + core correction, Zval =  3.0
     Generated by new atomic code, or converted to UPF format
     Using radial grid of  781 points,  4 beta functions with: 
                l(1) =   0
                l(2) =   0
                l(3) =   1
                l(4) =   1
     Q(r) pseudized with  8 coefficients,  rinner =    1.100   1.100   1.100


     PseudoPot. # 2 for H  read from file:
     /home/krojas/QE/pseudo/h_pbe_v1.4.uspp.F.UPF
     MD5 check sum: 761ae9a214b05c3daf00ab9f6b793d6f
     Pseudo is Ultrasoft, Zval =  1.0
     Generated by new atomic code, or converted to UPF format
     Using radial grid of  615 points,  2 beta functions with: 
                l(1) =   0
                l(2) =   0
     Q(r) pseudized with  8 coefficients,  rinner =    0.700

     atomic species   valence    mass     pseudopotential
        B              3.00    10.81000     B ( 1.00)
        H              1.00     1.00800     H ( 1.00)

     No symmetry found



   Cartesian axes

     site n.     atom                  positions (alat units)
         1           B   tau(   1) = (   0.0000000   0.0000000   1.9791325  )
         2           B   tau(   2) = (   0.5009657   0.2715580   1.9791325  )
         3           H   tau(   3) = (   0.5020846   0.5735104   2.2998349  )
         4           H   tau(   4) = (   0.5054015   0.5735104   1.6584302  )

     number of k points=    74  Gaussian smearing, width (Ry)=  0.0100
                       cart. coord. in units 2pi/alat
        k(    1) = (   0.0000000   0.0000000   0.0000000), wk =   0.0138889
        k(    2) = (   0.0003412   0.0949944   0.0000000), wk =   0.0277778
        k(    3) = (   0.0006823   0.1899889   0.0000000), wk =   0.0277778
        k(    4) = (   0.0010235   0.2849833   0.0000000), wk =   0.0277778
        k(    5) = (   0.0013646   0.3799777   0.0000000), wk =   0.0277778
        k(    6) = (   0.0017058   0.4749722   0.0000000), wk =   0.0277778
        k(    7) = (  -0.0020470  -0.5699666   0.0000000), wk =   0.0138889
        k(    8) = (   0.0831622  -0.0477984   0.0000000), wk =   0.0277778
        k(    9) = (   0.0835034   0.0471960   0.0000000), wk =   0.0277778
        k(   10) = (   0.0838445   0.1421905   0.0000000), wk =   0.0277778
        k(   11) = (   0.0841857   0.2371849   0.0000000), wk =   0.0277778
        k(   12) = (   0.0845269   0.3321793   0.0000000), wk =   0.0277778
        k(   13) = (   0.0848680   0.4271738   0.0000000), wk =   0.0277778
        k(   14) = (   0.0811152  -0.6177650   0.0000000), wk =   0.0277778
        k(   15) = (   0.0814564  -0.5227706   0.0000000), wk =   0.0277778
        k(   16) = (   0.0817976  -0.4277762   0.0000000), wk =   0.0277778
        k(   17) = (   0.0821387  -0.3327817   0.0000000), wk =   0.0277778
        k(   18) = (   0.0824799  -0.2377873   0.0000000), wk =   0.0277778
        k(   19) = (   0.0828210  -0.1427928   0.0000000), wk =   0.0277778
        k(   20) = (   0.1663244  -0.0955968   0.0000000), wk =   0.0277778
        k(   21) = (   0.1666656  -0.0006024   0.0000000), wk =   0.0277778
        k(   22) = (   0.1670067   0.0943921   0.0000000), wk =   0.0277778
        k(   23) = (   0.1673479   0.1893865   0.0000000), wk =   0.0277778
        k(   24) = (   0.1676891   0.2843809   0.0000000), wk =   0.0277778
        k(   25) = (   0.1680302   0.3793754   0.0000000), wk =   0.0277778
        k(   26) = (   0.1642774  -0.6655634   0.0000000), wk =   0.0277778
        k(   27) = (   0.1646186  -0.5705690   0.0000000), wk =   0.0277778
        k(   28) = (   0.1649598  -0.4755746   0.0000000), wk =   0.0277778
        k(   29) = (   0.1653009  -0.3805801   0.0000000), wk =   0.0277778
        k(   30) = (   0.1656421  -0.2855857   0.0000000), wk =   0.0277778
        k(   31) = (   0.1659833  -0.1905913   0.0000000), wk =   0.0277778
        k(   32) = (   0.2494866  -0.1433952   0.0000000), wk =   0.0277778
        k(   33) = (   0.2498278  -0.0484008   0.0000000), wk =   0.0277778
        k(   34) = (   0.2501689   0.0465936   0.0000000), wk =   0.0277778
        k(   35) = (   0.2505101   0.1415881   0.0000000), wk =   0.0277778
        k(   36) = (   0.2508513   0.2365825   0.0000000), wk =   0.0277778
        k(   37) = (   0.2511924   0.3315769   0.0000000), wk =   0.0277778
        k(   38) = (   0.2474397  -0.7133618   0.0000000), wk =   0.0277778
        k(   39) = (   0.2477808  -0.6183674   0.0000000), wk =   0.0277778
        k(   40) = (   0.2481220  -0.5233730   0.0000000), wk =   0.0277778
        k(   41) = (   0.2484631  -0.4283785   0.0000000), wk =   0.0277778
        k(   42) = (   0.2488043  -0.3333841   0.0000000), wk =   0.0277778
        k(   43) = (   0.2491455  -0.2383897   0.0000000), wk =   0.0277778
        k(   44) = (   0.3326488  -0.1911936   0.0000000), wk =   0.0277778
        k(   45) = (   0.3329900  -0.0961992   0.0000000), wk =   0.0277778
        k(   46) = (   0.3333312  -0.0012048   0.0000000), wk =   0.0277778
        k(   47) = (   0.3336723   0.0937897   0.0000000), wk =   0.0277778
        k(   48) = (   0.3340135   0.1887841   0.0000000), wk =   0.0277778
        k(   49) = (   0.3343546   0.2837785   0.0000000), wk =   0.0277778
        k(   50) = (   0.3306019  -0.7611603   0.0000000), wk =   0.0277778
        k(   51) = (   0.3309430  -0.6661658   0.0000000), wk =   0.0277778
        k(   52) = (   0.3312842  -0.5711714   0.0000000), wk =   0.0277778
        k(   53) = (   0.3316253  -0.4761769   0.0000000), wk =   0.0277778
        k(   54) = (   0.3319665  -0.3811825   0.0000000), wk =   0.0277778
        k(   55) = (   0.3323077  -0.2861881   0.0000000), wk =   0.0277778
        k(   56) = (   0.4158110  -0.2389921   0.0000000), wk =   0.0277778
        k(   57) = (   0.4161522  -0.1439976   0.0000000), wk =   0.0277778
        k(   58) = (   0.4164934  -0.0490032   0.0000000), wk =   0.0277778
        k(   59) = (   0.4168345   0.0459913   0.0000000), wk =   0.0277778
        k(   60) = (   0.4171757   0.1409857   0.0000000), wk =   0.0277778
        k(   61) = (   0.4175169   0.2359801   0.0000000), wk =   0.0277778
        k(   62) = (   0.4137641  -0.8089587   0.0000000), wk =   0.0277778
        k(   63) = (   0.4141052  -0.7139642   0.0000000), wk =   0.0277778
        k(   64) = (   0.4144464  -0.6189698   0.0000000), wk =   0.0277778
        k(   65) = (   0.4147876  -0.5239754   0.0000000), wk =   0.0277778
        k(   66) = (   0.4151287  -0.4289809   0.0000000), wk =   0.0277778
        k(   67) = (   0.4154699  -0.3339865   0.0000000), wk =   0.0277778
        k(   68) = (  -0.4989732   0.2867905   0.0000000), wk =   0.0138889
        k(   69) = (  -0.4986321   0.3817849   0.0000000), wk =   0.0277778
        k(   70) = (  -0.4982909   0.4767793   0.0000000), wk =   0.0277778
        k(   71) = (  -0.4979498   0.5717738   0.0000000), wk =   0.0277778
        k(   72) = (  -0.4976086   0.6667682   0.0000000), wk =   0.0277778
        k(   73) = (  -0.4972674   0.7617626   0.0000000), wk =   0.0277778
        k(   74) = (  -0.5010202  -0.2831762   0.0000000), wk =   0.0138889

     Dense  grid:   113933 G-vectors     FFT dimensions: (  40,  45, 160)

     Smooth grid:    40273 G-vectors     FFT dimensions: (  30,  30, 120)

     Estimated max dynamical RAM per process >      13.53 MB

     Estimated total dynamical RAM >     216.40 MB

     Initial potential from superposition of free atoms

     starting charge       7.9994, renormalised to       8.0000

     negative rho (up, down):  1.266E-05 0.000E+00
     Starting wfcs are   10 randomized atomic wfcs

     total cpu time spent up to now is        0.5 secs

     Self-consistent Calculation

     iteration #  1     ecut=    60.00 Ry     beta= 0.70
     Davidson diagonalization with overlap
     ethr =  1.00E-02,  avg # of iterations =  3.8

     negative rho (up, down):  1.231E-05 0.000E+00

     total cpu time spent up to now is        1.2 secs

     total energy              =     -15.01301431 Ry
     estimated scf accuracy    <       0.32449416 Ry

     iteration #  2     ecut=    60.00 Ry     beta= 0.70
     Davidson diagonalization with overlap
     ethr =  4.06E-03,  avg # of iterations =  3.6

     negative rho (up, down):  2.165E-05 0.000E+00

     total cpu time spent up to now is        1.8 secs

     total energy              =     -15.06607935 Ry
     estimated scf accuracy    <       0.01759229 Ry

     iteration #  3     ecut=    60.00 Ry     beta= 0.70
     Davidson diagonalization with overlap
     ethr =  2.20E-04,  avg # of iterations =  5.3

     negative rho (up, down):  3.148E-05 0.000E+00

     total cpu time spent up to now is        2.6 secs

     total energy              =     -15.06907066 Ry
     estimated scf accuracy    <       0.00052449 Ry

     iteration #  4     ecut=    60.00 Ry     beta= 0.70
     Davidson diagonalization with overlap
     ethr =  6.56E-06,  avg # of iterations =  6.0

     negative rho (up, down):  3.367E-05 0.000E+00

     total cpu time spent up to now is        3.3 secs

     total energy              =     -15.06915125 Ry
     estimated scf accuracy    <       0.00000530 Ry

     iteration #  5     ecut=    60.00 Ry     beta= 0.70
     Davidson diagonalization with overlap
     ethr =  6.62E-08,  avg # of iterations =  3.2

     negative rho (up, down):  3.429E-05 0.000E+00

     total cpu time spent up to now is        3.9 secs

     End of self-consistent calculation

          k = 0.0000 0.0000 0.0000 (  5017 PWs)   bands (ev):

   -14.4658  -8.7456  -2.9747  -0.5137   0.9715   2.3891   3.0051   5.6571

          k = 0.0003 0.0950 0.0000 (  4979 PWs)   bands (ev):

   -14.3669  -8.6276  -3.3671  -0.7658   1.0932   2.5307   3.1303   5.7811

          k = 0.0007 0.1900 0.0000 (  4988 PWs)   bands (ev):

   -14.0751  -8.2791  -4.3669  -1.3418   1.4728   2.9327   3.5149   4.0470

          k = 0.0010 0.2850 0.0000 (  5020 PWs)   bands (ev):

   -13.6084  -7.7192  -5.6450  -1.9655   2.0039   2.1090   3.7320   4.1318

          k = 0.0014 0.3800 0.0000 (  5038 PWs)   bands (ev):

   -13.0131  -6.9988  -6.9327  -2.4772   0.2665   2.9400   4.7155   4.7321

          k = 0.0017 0.4750 0.0000 (  5038 PWs)   bands (ev):

   -12.4136  -7.9849  -6.2610  -2.8041  -1.1006   3.6892   5.1463   5.9770

          k =-0.0020-0.5700 0.0000 (  5036 PWs)   bands (ev):

   -12.1216  -8.4333  -5.8933  -2.9158  -1.6805   3.9121   5.9272   6.5376

          k = 0.0832-0.0478 0.0000 (  5007 PWs)   bands (ev):

   -14.3670  -8.6448  -3.2568  -0.9064   1.1073   2.5309   3.1457   5.7234

          k = 0.0835 0.0472 0.0000 (  5007 PWs)   bands (ev):

   -14.3670  -8.6448  -3.2569  -0.9063   1.1073   2.5310   3.1457   5.7240

          k = 0.0838 0.1422 0.0000 (  5003 PWs)   bands (ev):

   -14.1718  -8.4132  -3.9560  -1.3185   1.3583   2.8062   3.4022   4.9258

          k = 0.0842 0.2372 0.0000 (  5010 PWs)   bands (ev):

   -13.7925  -7.9620  -5.0635  -1.9674   1.8732   2.8345   3.5214   3.9227

          k = 0.0845 0.3322 0.0000 (  5029 PWs)   bands (ev):

   -13.2588  -7.3239  -6.3087  -2.5954   1.1088   2.6328   4.2907   4.6505

          k = 0.0849 0.4272 0.0000 (  5030 PWs)   bands (ev):

   -12.6467  -7.4651  -6.5850  -3.0563  -0.4271   3.5367   5.2556   5.4060

          k = 0.0811-0.6178 0.0000 (  5055 PWs)   bands (ev):

   -12.1603  -8.2429  -5.9879  -3.2951  -1.4312   4.1915   5.8323   6.7283

          k = 0.0815-0.5228 0.0000 (  5055 PWs)   bands (ev):

   -12.1603  -8.2429  -5.9879  -3.2951  -1.4312   4.1915   5.8323   6.7283

          k = 0.0818-0.4278 0.0000 (  5030 PWs)   bands (ev):

   -12.6467  -7.4651  -6.5850  -3.0563  -0.4271   3.5367   5.2556   5.4061

          k = 0.0821-0.3328 0.0000 (  5029 PWs)   bands (ev):

   -13.2587  -7.3239  -6.3087  -2.5954   1.1089   2.6328   4.2907   4.6503

          k = 0.0825-0.2378 0.0000 (  5010 PWs)   bands (ev):

   -13.7925  -7.9620  -5.0635  -1.9675   1.8732   2.8346   3.5215   3.9225

          k = 0.0828-0.1428 0.0000 (  5003 PWs)   bands (ev):

   -14.1718  -8.4132  -3.9558  -1.3187   1.3583   2.8062   3.4022   4.9260

          k = 0.1663-0.0956 0.0000 (  5007 PWs)   bands (ev):

   -14.0766  -8.3525  -4.0230  -1.7823   1.5202   2.9441   3.5711   5.3894

          k = 0.1667-0.0006 0.0000 (  4991 PWs)   bands (ev):

   -14.1724  -8.4641  -3.6637  -1.6892   1.3930   2.8130   3.4415   6.0411

          k = 0.1670 0.0944 0.0000 (  5007 PWs)   bands (ev):

   -14.0767  -8.3525  -4.0233  -1.7819   1.5202   2.9441   3.5711   5.3891

          k = 0.1673 0.1894 0.0000 (  5031 PWs)   bands (ev):

   -13.7951  -8.0241  -4.8455  -2.2450   1.9066   3.1793   3.8495   3.9648

          k = 0.1677 0.2844 0.0000 (  5037 PWs)   bands (ev):

   -13.3482  -7.5025  -5.8485  -2.9836   1.8755   2.5557   4.1703   4.6291

          k = 0.1680 0.3794 0.0000 (  5046 PWs)   bands (ev):

   -12.7869  -6.8850  -6.8450  -3.6643   0.3769   3.4336   5.1081   5.5050

          k = 0.1643-0.6656 0.0000 (  5071 PWs)   bands (ev):

   -12.2379  -7.7582  -6.2013  -4.1038  -0.7943   4.4032   6.2205   6.2896

          k = 0.1646-0.5706 0.0000 (  5067 PWs)   bands (ev):

   -11.9802  -8.1320  -5.8979  -4.2525  -1.2764   4.9265   6.9276   7.0583

          k = 0.1650-0.4756 0.0000 (  5071 PWs)   bands (ev):

   -12.2378  -7.7582  -6.2013  -4.1039  -0.7942   4.4032   6.2205   6.2896

          k = 0.1653-0.3806 0.0000 (  5048 PWs)   bands (ev):

   -12.7868  -6.8849  -6.8450  -3.6644   0.3770   3.4337   5.1081   5.5053

          k = 0.1656-0.2856 0.0000 (  5037 PWs)   bands (ev):

   -13.3482  -7.5024  -5.8484  -2.9838   1.8757   2.5558   4.1704   4.6292

          k = 0.1660-0.1906 0.0000 (  5031 PWs)   bands (ev):

   -13.7950  -8.0241  -4.8453  -2.2453   1.9067   3.1795   3.8497   3.9648

          k = 0.2495-0.1434 0.0000 (  5031 PWs)   bands (ev):

   -13.6175  -7.9035  -5.1102  -2.6641   2.2106   3.3623   4.1515   4.2774

          k = 0.2498-0.0484 0.0000 (  5026 PWs)   bands (ev):

   -13.7972  -8.1058  -4.4818  -2.6978   1.9517   3.3529   4.0184   5.1974

          k = 0.2502 0.0466 0.0000 (  5026 PWs)   bands (ev):

   -13.7973  -8.1058  -4.4821  -2.6974   1.9517   3.3529   4.0183   5.1971

          k = 0.2505 0.1416 0.0000 (  5031 PWs)   bands (ev):

   -13.6175  -7.9035  -5.1106  -2.6635   2.2106   3.3621   4.1511   4.2775

          k = 0.2509 0.2366 0.0000 (  5038 PWs)   bands (ev):

   -13.2729  -7.5166  -5.8809  -3.1401   2.2980   2.7266   4.3688   4.7921

          k = 0.2512 0.3316 0.0000 (  5053 PWs)   bands (ev):

   -12.8018  -6.9898  -6.6167  -3.9792   1.0446   3.4923   5.1263   5.5998

          k = 0.2474-0.7134 0.0000 (  5056 PWs)   bands (ev):

   -12.2906  -7.2619  -6.4210  -4.7575  -0.0208   4.4421   5.9516   6.5826

          k = 0.2478-0.6184 0.0000 (  5062 PWs)   bands (ev):

   -11.9185  -7.6936  -6.0108  -5.1956  -0.6829   5.3127   6.1897   7.2848

          k = 0.2481-0.5234 0.0000 (  5062 PWs)   bands (ev):

   -11.9185  -7.6936  -6.0108  -5.1957  -0.6829   5.3128   6.1897   7.2850

          k = 0.2485-0.4284 0.0000 (  5056 PWs)   bands (ev):

   -12.2905  -7.2618  -6.4209  -4.7576  -0.0206   4.4421   5.9516   6.5828

          k = 0.2488-0.3334 0.0000 (  5053 PWs)   bands (ev):

   -12.8017  -6.9898  -6.6165  -3.9795   1.0449   3.4924   5.1265   5.5998

          k = 0.2491-0.2384 0.0000 (  5038 PWs)   bands (ev):

   -13.2728  -7.5166  -5.8805  -3.1406   2.2984   2.7267   4.3690   4.7919

          k = 0.3326-0.1912 0.0000 (  5036 PWs)   bands (ev):

   -13.0451  -7.3738  -6.2919  -3.3209   2.3011   3.1605   4.7923   4.8163

          k = 0.3330-0.0962 0.0000 (  5043 PWs)   bands (ev):

   -13.2781  -7.6189  -5.5877  -3.5032   2.7779   3.3587   4.3975   4.8717

          k = 0.3333-0.0012 0.0000 (  5043 PWs)   bands (ev):

   -13.3590  -7.7043  -5.1454  -3.8201   2.6473   4.0024   4.2385   4.7400

          k = 0.3337 0.0938 0.0000 (  5043 PWs)   bands (ev):

   -13.2781  -7.6190  -5.5881  -3.5027   2.7779   3.3582   4.3973   4.8717

          k = 0.3340 0.1888 0.0000 (  5036 PWs)   bands (ev):

   -13.0452  -7.3739  -6.2923  -3.3203   2.3006   3.1604   4.7933   4.8163

          k = 0.3344 0.2838 0.0000 (  5056 PWs)   bands (ev):

   -12.6935  -7.0072  -6.8765  -3.7860   1.3410   3.7803   5.1829   5.4740

          k = 0.3306-0.7612 0.0000 (  5051 PWs)   bands (ev):

   -12.2917  -7.2329  -6.5859  -4.6898   0.5879   4.6036   6.0921   6.3908

          k = 0.3309-0.6662 0.0000 (  5056 PWs)   bands (ev):

   -11.9557  -7.3060  -6.2352  -5.5949   0.0932   5.4349   5.7458   7.4369

          k = 0.3313-0.5712 0.0000 (  5049 PWs)   bands (ev):

   -11.8218  -7.2347  -6.1007  -6.0260  -0.0832   5.4696   5.8080   7.8498

          k = 0.3316-0.4762 0.0000 (  5056 PWs)   bands (ev):

   -11.9556  -7.3058  -6.2352  -5.5952   0.0934   5.4351   5.7456   7.4386

          k = 0.3320-0.3812 0.0000 (  5051 PWs)   bands (ev):

   -12.2915  -7.2326  -6.5859  -4.6902   0.5882   4.6037   6.0920   6.3898

          k = 0.3323-0.2862 0.0000 (  5056 PWs)   bands (ev):

   -12.6933  -7.0071  -6.8762  -3.7866   1.3414   3.7804   5.1820   5.4741

          k = 0.4158-0.2390 0.0000 (  5035 PWs)   bands (ev):

   -12.4945  -7.2713  -6.9068  -3.7132   1.3026   4.2898   4.6118   6.0612

          k = 0.4162-0.1440 0.0000 (  5059 PWs)   bands (ev):

   -12.7014  -7.1023  -6.7074  -3.9957   2.0261   3.8385   5.2245   5.3922

          k = 0.4165-0.0490 0.0000 (  5060 PWs)   bands (ev):

   -12.8201  -7.2126  -6.0159  -4.6648   2.8206   3.5884   4.8051   5.7251

          k = 0.4168 0.0460 0.0000 (  5060 PWs)   bands (ev):

   -12.8202  -7.2126  -6.0162  -4.6644   2.8203   3.5883   4.8051   5.7251

          k = 0.4172 0.1410 0.0000 (  5059 PWs)   bands (ev):

   -12.7015  -7.1023  -6.7078  -3.9950   2.0256   3.8384   5.2253   5.3922

          k = 0.4175 0.2360 0.0000 (  5035 PWs)   bands (ev):

   -12.4946  -7.2717  -6.9068  -3.7125   1.3021   4.2898   4.6126   6.0611

          k = 0.4138-0.8090 0.0000 (  5051 PWs)   bands (ev):

   -12.2605  -7.5301  -6.6817  -4.1370   0.8635   4.8571   5.1303   6.7299

          k = 0.4141-0.7140 0.0000 (  5056 PWs)   bands (ev):

   -12.0735  -7.4026  -6.4885  -5.0381   0.7296   5.4034   6.0034   6.3460

          k = 0.4144-0.6190 0.0000 (  5053 PWs)   bands (ev):

   -11.9781  -6.8839  -6.3797  -6.0286   0.7746   5.1829   5.5166   7.6043

          k = 0.4148-0.5240 0.0000 (  5053 PWs)   bands (ev):

   -11.9781  -6.8835  -6.3797  -6.0290   0.7747   5.1827   5.5166   7.6043

          k = 0.4151-0.4290 0.0000 (  5056 PWs)   bands (ev):

   -12.0734  -7.4023  -6.4884  -5.0386   0.7300   5.4036   6.0030   6.3451

          k = 0.4155-0.3340 0.0000 (  5051 PWs)   bands (ev):

   -12.2604  -7.5298  -6.6817  -4.1376   0.8639   4.8569   5.1297   6.7298

          k =-0.4990 0.2868 0.0000 (  5038 PWs)   bands (ev):

   -12.2418  -7.6755  -6.7124  -3.8433   0.9206   4.5058   5.1596   6.6901

          k =-0.4986 0.3818 0.0000 (  5049 PWs)   bands (ev):

   -12.2654  -7.4744  -6.7240  -4.2040   1.0984   4.9619   5.0614   6.5702

          k =-0.4983 0.4768 0.0000 (  5054 PWs)   bands (ev):

   -12.3107  -6.9204  -6.7457  -5.0371   1.5345   4.6916   5.4917   6.4245

          k =-0.4979 0.5718 0.0000 (  5075 PWs)   bands (ev):

   -12.3325  -6.7595  -6.3091  -5.7690   1.8244   4.5859   4.9423   6.7884

          k =-0.4976 0.6668 0.0000 (  5054 PWs)   bands (ev):

   -12.3108  -6.9208  -6.7457  -5.0365   1.5341   4.6916   5.4920   6.4254

          k =-0.4973 0.7618 0.0000 (  5049 PWs)   bands (ev):

   -12.2655  -7.4747  -6.7240  -4.2034   1.0979   4.9618   5.0622   6.5703

          k =-0.5010-0.2832 0.0000 (  5038 PWs)   bands (ev):

   -12.2419  -7.6758  -6.7124  -3.8426   0.9201   4.5066   5.1594   6.6899

     the Fermi energy is    -1.1635 ev

!    total energy              =     -15.06915398 Ry
     estimated scf accuracy    <       0.00000065 Ry
     smearing contrib. (-TS)   =      -0.00016721 Ry
     internal energy E=F+TS    =     -15.06898676 Ry

     The total energy is F=E-TS. E is the sum of the following terms:
     one-electron contribution =     -65.66846369 Ry
     hartree contribution      =      34.41485517 Ry
     xc contribution           =      -7.30060253 Ry
     ewald contribution        =      23.48522428 Ry

     convergence has been achieved in   5 iterations

     negative rho (up, down):  3.429E-05 0.000E+00

     Forces acting on atoms (cartesian axes, Ry/au):

     atom    1 type  1   force =     0.00015796   -0.00052613    0.00003177
     atom    2 type  1   force =     0.00023889    0.00055781    0.00002461
     atom    3 type  2   force =     0.00015140   -0.00000947   -0.00009027
     atom    4 type  2   force =    -0.00054825   -0.00002222    0.00003389
     The non-local contrib.  to forces
     atom    1 type  1   force =    -0.00036897   -0.34473895   -0.00010936
     atom    2 type  1   force =     0.00221290    0.34479077   -0.00012923
     atom    3 type  2   force =     0.00005658    0.00000451   -0.11090531
     atom    4 type  2   force =    -0.00141686    0.00001318    0.11092201
     The ionic contribution  to forces
     atom    1 type  1   force =    -0.00197020    0.69533635   -0.00001622
     atom    2 type  1   force =    -0.00693320   -0.69518146   -0.00008465
     atom    3 type  2   force =    -0.00028615   -0.00004180    2.57657401
     atom    4 type  2   force =     0.00918955   -0.00011309   -2.57647315
     The local contribution  to forces
     atom    1 type  1   force =     0.00247140   -0.35845573    0.00108767
     atom    2 type  1   force =     0.00499185    0.35828301    0.00116658
     atom    3 type  2   force =     0.00038127    0.00002923   -2.46551569
     atom    4 type  2   force =    -0.00832126    0.00007774    2.46573930
     The core correction contribution to forces
     atom    1 type  1   force =     0.00002423    0.00714180    0.00000651
     atom    2 type  1   force =    -0.00003103   -0.00714417    0.00000755
     atom    3 type  2   force =     0.00000000    0.00000000    0.00000000
     atom    4 type  2   force =     0.00000000    0.00000000    0.00000000
     The Hubbard contrib.    to forces
     atom    1 type  1   force =     0.00000000    0.00000000    0.00000000
     atom    2 type  1   force =     0.00000000    0.00000000    0.00000000
     atom    3 type  2   force =     0.00000000    0.00000000    0.00000000
     atom    4 type  2   force =     0.00000000    0.00000000    0.00000000
     The SCF correction term to forces
     atom    1 type  1   force =     0.00000139    0.00019049   -0.00089292
     atom    2 type  1   force =    -0.00000174   -0.00019025   -0.00089172
     atom    3 type  2   force =    -0.00000041   -0.00000132   -0.00019937
     atom    4 type  2   force =     0.00000020    0.00000003   -0.00011036

     Total force =     0.001002     Total SCF correction =     0.001310
     SCF correction compared to forces is large: reduce conv_thr to get better values

     Writing all to output data dir ./TMPDIR/pwscf.save/
 
     init_run     :      0.42s CPU      0.44s WALL (       1 calls)
     electrons    :      3.26s CPU      3.44s WALL (       1 calls)
     forces       :      0.15s CPU      0.15s WALL (       1 calls)

     Called by init_run:
     wfcinit      :      0.20s CPU      0.21s WALL (       1 calls)
     potinit      :      0.06s CPU      0.06s WALL (       1 calls)
     hinit0       :      0.13s CPU      0.14s WALL (       1 calls)

     Called by electrons:
     c_bands      :      2.75s CPU      2.86s WALL (       5 calls)
     sum_band     :      0.41s CPU      0.43s WALL (       5 calls)
     v_of_rho     :      0.06s CPU      0.06s WALL (       6 calls)
     newd         :      0.03s CPU      0.04s WALL (       6 calls)
     mix_rho      :      0.00s CPU      0.00s WALL (       5 calls)

     Called by c_bands:
     init_us_2    :      0.07s CPU      0.07s WALL (     888 calls)
     init_us_2:cp :      0.07s CPU      0.07s WALL (     888 calls)
     cegterg      :      2.63s CPU      2.74s WALL (     370 calls)

     Called by *egterg:
     cdiaghg      :      0.20s CPU      0.21s WALL (    1987 calls)
     h_psi        :      2.25s CPU      2.34s WALL (    2061 calls)
     s_psi        :      0.05s CPU      0.05s WALL (    2061 calls)
     g_psi        :      0.02s CPU      0.02s WALL (    1617 calls)

     Called by h_psi:
     h_psi:calbec :      0.10s CPU      0.10s WALL (    2061 calls)
     vloc_psi     :      2.08s CPU      2.17s WALL (    2061 calls)
     add_vuspsi   :      0.06s CPU      0.06s WALL (    2061 calls)

     General routines
     calbec       :      0.13s CPU      0.13s WALL (    2727 calls)
     fft          :      0.07s CPU      0.07s WALL (      87 calls)
     ffts         :      0.00s CPU      0.00s WALL (      11 calls)
     fftw         :      2.08s CPU      2.16s WALL (   23070 calls)
     interpolate  :      0.00s CPU      0.00s WALL (       6 calls)
 
     Parallel routines
 
     PWSCF        :      3.97s CPU      4.82s WALL

 
   This run was terminated on:  17:36:44  12Mar2024            

=------------------------------------------------------------------------------=
   JOB DONE.
=------------------------------------------------------------------------------=
