
     Program PWSCF v.7.2 starts on  8Nov2023 at 16:35:15 

     This program is part of the open-source Quantum ESPRESSO suite
     for quantum simulation of materials; please cite
         "P. Giannozzi et al., J. Phys.:Condens. Matter 21 395502 (2009);
         "P. Giannozzi et al., J. Phys.:Condens. Matter 29 465901 (2017);
         "P. Giannozzi et al., J. Chem. Phys. 152 154105 (2020);
          URL http://www.quantum-espresso.org", 
     in publications or presentations arising from this work. More details at
     http://www.quantum-espresso.org/quote

     Parallel version (MPI), running on     4 processors

     MPI processes distributed on     1 nodes
     9290 MiB available memory on the printing compute node when the environment starts
 
     Reading input from espresso.pwi
Warning: card &CELL ignored
Warning: card / ignored

     Current dimensions of program PWSCF are:
     Max number of different atomic species (ntypx) = 10
     Max number of k-points (npk) =  40000
     Max angular momentum in pseudopotentials (lmaxx) =  4
     Presently no symmetry can be used with electric field

 
     R & G space division:  proc/nbgrp/npool/nimage =       4
     Subspace diagonalization in iterative solution of the eigenvalue problem:
     a serial algorithm will be used

 
     Parallelization info
     --------------------
     sticks:   dense  smooth     PW     G-vecs:    dense   smooth      PW
     Min        7666    3832    958              1011072   357408   44730
     Max        7670    3833    959              1011073   357411   44733
     Sum       30669   15329   3833              4044289  1429635  178925
 
     Using Slab Decomposition
 


     bravais-lattice index     =            0
     lattice parameter (alat)  =      28.3459  a.u.
     unit-cell volume          =   22775.6289 (a.u.)^3
     number of atoms/cell      =            3
     number of atomic types    =            2
     number of electrons       =         8.00
     number of Kohn-Sham states=            8
     kinetic-energy cutoff     =      60.0000  Ry
     charge density cutoff     =     480.0000  Ry
     scf convergence threshold =      1.0E-07
     mixing beta               =       0.7000
     number of iterations used =            8  plain     mixing
     Exchange-correlation=  SLA  PW   PBX  PBC
                           (   1   4   3   4   0   0   0)

     celldm(1)=  28.345892  celldm(2)=   0.000000  celldm(3)=   0.000000
     celldm(4)=   0.000000  celldm(5)=   0.000000  celldm(6)=   0.000000

     crystal axes: (cart. coord. in units of alat)
               a(1) = (   1.000000   0.000000   0.000000 )  
               a(2) = (   0.000000   1.000000   0.000000 )  
               a(3) = (   0.000000   0.000000   1.000000 )  

     reciprocal axes: (cart. coord. in units 2 pi/alat)
               b(1) = (  1.000000  0.000000  0.000000 )  
               b(2) = (  0.000000  1.000000  0.000000 )  
               b(3) = (  0.000000  0.000000  1.000000 )  


     PseudoPot. # 1 for O  read from file:
     /home/krojas/github_files/MatSciToolKit/tutorial/example_ase_ir_2/ir_1/o_pbe_v1.2.uspp.F.UPF
     MD5 check sum: 734c27235a0248c51dbae37a1fbe46ec
     Pseudo is Ultrasoft + core correction, Zval =  6.0
     Generated by new atomic code, or converted to UPF format
     Using radial grid of  737 points,  5 beta functions with: 
                l(1) =   0
                l(2) =   0
                l(3) =   1
                l(4) =   1
                l(5) =   2
     Q(r) pseudized with  8 coefficients,  rinner =    0.900   0.900   0.900
                                                       0.900   0.900

     PseudoPot. # 2 for H  read from file:
     /home/krojas/github_files/MatSciToolKit/tutorial/example_ase_ir_2/ir_1/h_pbe_v1.4.uspp.F.UPF
     MD5 check sum: 761ae9a214b05c3daf00ab9f6b793d6f
     Pseudo is Ultrasoft, Zval =  1.0
     Generated by new atomic code, or converted to UPF format
     Using radial grid of  615 points,  2 beta functions with: 
                l(1) =   0
                l(2) =   0
     Q(r) pseudized with  8 coefficients,  rinner =    0.700

     atomic species   valence    mass     pseudopotential
        O              6.00    15.99900     O ( 1.00)
        H              1.00     1.00800     H ( 1.00)

     No symmetry found



   Cartesian axes

     site n.     atom                  positions (alat units)
         1           O   tau(   1) = (   0.4993333   0.5000000   0.5201804  )
         2           H   tau(   2) = (   0.5000000   0.5513479   0.4798196  )
         3           H   tau(   3) = (   0.5000000   0.4486521   0.4798196  )

     number of k points=     1  Gaussian smearing, width (Ry)=  0.0100
                       cart. coord. in units 2pi/alat
        k(    1) = (   0.0000000   0.0000000   0.0000000), wk =   2.0000000

     Dense  grid:  4044289 G-vectors     FFT dimensions: ( 200, 200, 200)

     Smooth grid:  1429635 G-vectors     FFT dimensions: ( 144, 144, 144)

     Estimated max dynamical RAM per process >       2.25 GB

     Estimated total dynamical RAM >       9.02 GB

     Initial potential from superposition of free atoms

     starting charge       8.0000, renormalised to       8.0000

     negative rho (up, down):  5.058E-04 0.000E+00
 
     Adding external electric field

     Computed dipole along edir(3) : 
        Dipole               -0.0000 Ry au,         -0.0000 Debye
        Dipole field         -0.0000 Ry au, 
 
        Potential amp.        0.0000 Ry
        Total length         28.3431 bohr
 
     Starting wfcs are    6 randomized atomic wfcs +    2 random wfcs

     total cpu time spent up to now is        9.0 secs

     per-process dynamical memory:   488.9 Mb

     Self-consistent Calculation

     iteration #  1     ecut=    60.00 Ry     beta= 0.70
     Davidson diagonalization with overlap
     ethr =  1.00E-02,  avg # of iterations =  8.0

     negative rho (up, down):  1.822E-03 0.000E+00
 
     Adding external electric field

     Computed dipole along edir(3) : 
        Dipole               -0.7976 Ry au,         -2.0272 Debye
        Dipole field         -0.0004 Ry au, 
 
        Potential amp.        0.0249 Ry
        Total length         28.3431 bohr
 

     total cpu time spent up to now is       20.9 secs

     total energy              =     -34.47338646 Ry
     estimated scf accuracy    <       0.45759807 Ry

     iteration #  2     ecut=    60.00 Ry     beta= 0.70
     Davidson diagonalization with overlap
     ethr =  5.72E-03,  avg # of iterations =  2.0

     negative rho (up, down):  2.091E-03 0.000E+00
 
     Adding external electric field

     Computed dipole along edir(3) : 
        Dipole               -0.5813 Ry au,         -1.4776 Debye
        Dipole field         -0.0003 Ry au, 
 
        Potential amp.        0.0182 Ry
        Total length         28.3431 bohr
 

     total cpu time spent up to now is       31.7 secs

     total energy              =     -34.58602078 Ry
     estimated scf accuracy    <       0.45305226 Ry

     iteration #  3     ecut=    60.00 Ry     beta= 0.70
     Davidson diagonalization with overlap
     ethr =  5.66E-03,  avg # of iterations =  2.0

     negative rho (up, down):  2.373E-03 0.000E+00
 
     Adding external electric field

     Computed dipole along edir(3) : 
        Dipole               -0.7051 Ry au,         -1.7923 Debye
        Dipole field         -0.0004 Ry au, 
 
        Potential amp.        0.0221 Ry
        Total length         28.3431 bohr
 

     total cpu time spent up to now is       42.7 secs

     total energy              =     -34.66627953 Ry
     estimated scf accuracy    <       0.00373145 Ry

     iteration #  4     ecut=    60.00 Ry     beta= 0.70
     Davidson diagonalization with overlap
     ethr =  4.66E-05,  avg # of iterations =  8.0

     negative rho (up, down):  2.368E-03 0.000E+00
 
     Adding external electric field

     Computed dipole along edir(3) : 
        Dipole               -0.7033 Ry au,         -1.7876 Debye
        Dipole field         -0.0004 Ry au, 
 
        Potential amp.        0.0220 Ry
        Total length         28.3431 bohr
 

     total cpu time spent up to now is       55.4 secs

     total energy              =     -34.66728523 Ry
     estimated scf accuracy    <       0.00176635 Ry

     iteration #  5     ecut=    60.00 Ry     beta= 0.70
     Davidson diagonalization with overlap
     ethr =  2.21E-05,  avg # of iterations =  1.0

     negative rho (up, down):  2.408E-03 0.000E+00
 
     Adding external electric field

     Computed dipole along edir(3) : 
        Dipole               -0.7167 Ry au,         -1.8217 Debye
        Dipole field         -0.0004 Ry au, 
 
        Potential amp.        0.0224 Ry
        Total length         28.3431 bohr
 

     total cpu time spent up to now is       65.5 secs

     total energy              =     -34.66714054 Ry
     estimated scf accuracy    <       0.00035224 Ry

     iteration #  6     ecut=    60.00 Ry     beta= 0.70
     Davidson diagonalization with overlap
     ethr =  4.40E-06,  avg # of iterations = 16.0

     negative rho (up, down):  2.405E-03 0.000E+00
 
     Adding external electric field

     Computed dipole along edir(3) : 
        Dipole               -0.7096 Ry au,         -1.8037 Debye
        Dipole field         -0.0004 Ry au, 
 
        Potential amp.        0.0222 Ry
        Total length         28.3431 bohr
 

     total cpu time spent up to now is       77.6 secs

     total energy              =     -34.66725980 Ry
     estimated scf accuracy    <       0.00011563 Ry

     iteration #  7     ecut=    60.00 Ry     beta= 0.70
     Davidson diagonalization with overlap
     ethr =  1.45E-06,  avg # of iterations =  5.0

     negative rho (up, down):  2.412E-03 0.000E+00
 
     Adding external electric field

     Computed dipole along edir(3) : 
        Dipole               -0.7091 Ry au,         -1.8025 Debye
        Dipole field         -0.0004 Ry au, 
 
        Potential amp.        0.0222 Ry
        Total length         28.3431 bohr
 

     total cpu time spent up to now is       88.3 secs

     total energy              =     -34.66727811 Ry
     estimated scf accuracy    <       0.00000098 Ry

     iteration #  8     ecut=    60.00 Ry     beta= 0.70
     Davidson diagonalization with overlap
     ethr =  1.23E-08,  avg # of iterations =  2.0

     negative rho (up, down):  2.413E-03 0.000E+00
 
     Adding external electric field

     Computed dipole along edir(3) : 
        Dipole               -0.7090 Ry au,         -1.8022 Debye
        Dipole field         -0.0004 Ry au, 
 
        Potential amp.        0.0222 Ry
        Total length         28.3431 bohr
 

     total cpu time spent up to now is       98.8 secs

     total energy              =     -34.66727823 Ry
     estimated scf accuracy    <       0.00000019 Ry

     iteration #  9     ecut=    60.00 Ry     beta= 0.70
     Davidson diagonalization with overlap
     ethr =  2.41E-09,  avg # of iterations =  2.0

     negative rho (up, down):  2.414E-03 0.000E+00
 
     Adding external electric field

     Computed dipole along edir(3) : 
        Dipole               -0.7090 Ry au,         -1.8021 Debye
        Dipole field         -0.0004 Ry au, 
 
        Potential amp.        0.0222 Ry
        Total length         28.3431 bohr
 

     total cpu time spent up to now is      108.7 secs

     End of self-consistent calculation

          k = 0.0000 0.0000 0.0000 (178925 PWs)   bands (ev):

   -25.1319 -12.9358  -9.3038  -7.1872  -1.0053  -0.1157   0.2332   0.3600

     the Fermi energy is    -5.3327 ev

!    total energy              =     -34.66727826 Ry
     estimated scf accuracy    <          8.5E-09 Ry
     smearing contrib. (-TS)   =      -0.00000000 Ry
     internal energy E=F+TS    =     -34.66727826 Ry

     The total energy is F=E-TS. E is the sum of the following terms:
     one-electron contribution =     -69.44130279 Ry
     hartree contribution      =      36.19845086 Ry
     xc contribution           =      -8.67784657 Ry
     ewald contribution        =       7.25314287 Ry
     electric field correction =       0.00027736 Ry

     convergence has been achieved in   9 iterations

     negative rho (up, down):  2.414E-03 0.000E+00

     Forces acting on atoms (cartesian axes, Ry/au):

     atom    1 type  1   force =     0.00000329   -0.00000020   -0.00037674
     atom    2 type  2   force =    -0.00000091    0.00001308    0.00018789
     atom    3 type  2   force =    -0.00000238   -0.00001288    0.00018885
     The non-local contrib.  to forces
     atom    1 type  1   force =     0.03588825   -0.00000403   -2.17627766
     atom    2 type  2   force =    -0.00234085   -0.19519077    0.14165124
     atom    3 type  2   force =    -0.00234129    0.19519052    0.14165125
     The ionic contribution  to forces
     atom    1 type  1   force =    -0.07138426    0.00000000    4.32163801
     atom    2 type  2   force =     0.03569213    2.98392553   -2.16081901
     atom    3 type  2   force =     0.03569213   -2.98392553   -2.16081901
     The local contribution  to forces
     atom    1 type  1   force =     0.03570177    0.00000017   -2.16226464
     atom    2 type  2   force =    -0.03334956   -2.78871969    2.01855042
     atom    3 type  2   force =    -0.03335084    2.78871895    2.01855075
     The core correction contribution to forces
     atom    1 type  1   force =    -0.00018972    0.00000004    0.01161483
     atom    2 type  2   force =     0.00000000    0.00000000    0.00000000
     atom    3 type  2   force =     0.00000000    0.00000000    0.00000000
     The Hubbard contrib.    to forces
     atom    1 type  1   force =     0.00000000    0.00000000    0.00000000
     atom    2 type  2   force =     0.00000000    0.00000000    0.00000000
     atom    3 type  2   force =     0.00000000    0.00000000    0.00000000
     The SCF correction term to forces
     atom    1 type  1   force =    -0.00001093    0.00000357    0.00020654
     atom    2 type  2   force =    -0.00000080   -0.00000202    0.00001100
     atom    3 type  2   force =    -0.00000055    0.00000314    0.00001164

     Total force =     0.000462     Total SCF correction =     0.000208
     SCF correction compared to forces is large: reduce conv_thr to get better values

     Writing all to output data dir tmpdir/pwscf.save/
 
     init_run     :      6.97s CPU      8.92s WALL (       1 calls)
     electrons    :     83.04s CPU     99.93s WALL (       1 calls)
     forces       :      4.35s CPU      5.32s WALL (       1 calls)

     Called by init_run:
     wfcinit      :      0.47s CPU      0.55s WALL (       1 calls)
     potinit      :      2.00s CPU      2.34s WALL (       1 calls)
     hinit0       :      0.53s CPU      0.64s WALL (       1 calls)

     Called by electrons:
     c_bands      :     14.74s CPU     16.08s WALL (       9 calls)
     sum_band     :     32.38s CPU     37.96s WALL (       9 calls)
     v_of_rho     :     14.32s CPU     17.05s WALL (      10 calls)
     newd         :     19.11s CPU     27.24s WALL (      10 calls)
     mix_rho      :      3.95s CPU      4.30s WALL (       9 calls)

     Called by c_bands:
     init_us_2    :      0.22s CPU      0.22s WALL (      19 calls)
     init_us_2:cp :      0.22s CPU      0.22s WALL (      19 calls)
     cegterg      :     14.32s CPU     15.66s WALL (       9 calls)

     Called by *egterg:
     cdiaghg      :      0.01s CPU      0.01s WALL (      55 calls)
     h_psi        :     12.94s CPU     14.34s WALL (      56 calls)
     s_psi        :      0.20s CPU      0.20s WALL (      56 calls)
     g_psi        :      0.04s CPU      0.04s WALL (      46 calls)

     Called by h_psi:
     h_psi:calbec :      0.21s CPU      0.22s WALL (      56 calls)
     vloc_psi     :     12.46s CPU     13.83s WALL (      56 calls)
     add_vuspsi   :      0.20s CPU      0.21s WALL (      56 calls)

     General routines
     calbec       :      0.27s CPU      0.29s WALL (      69 calls)
     fft          :     12.89s CPU     16.25s WALL (     139 calls)
     ffts         :      0.69s CPU      0.78s WALL (      19 calls)
     fftw         :     10.10s CPU     11.55s WALL (     566 calls)
     interpolate  :      1.49s CPU      1.74s WALL (      10 calls)
 
     Parallel routines
 
     PWSCF        :   1m34.51s CPU   1m54.49s WALL

 
   This run was terminated on:  16:37:10   8Nov2023            

=------------------------------------------------------------------------------=
   JOB DONE.
=------------------------------------------------------------------------------=
