
     Program PWSCF v.7.2 starts on  1Dec2023 at 10:31:56 

     This program is part of the open-source Quantum ESPRESSO suite
     for quantum simulation of materials; please cite
         "P. Giannozzi et al., J. Phys.:Condens. Matter 21 395502 (2009);
         "P. Giannozzi et al., J. Phys.:Condens. Matter 29 465901 (2017);
         "P. Giannozzi et al., J. Chem. Phys. 152 154105 (2020);
          URL http://www.quantum-espresso.org", 
     in publications or presentations arising from this work. More details at
     http://www.quantum-espresso.org/quote

     Parallel version (MPI), running on     4 processors

     MPI processes distributed on     1 nodes
     12484 MiB available memory on the printing compute node when the environment starts
 
     Reading input from espresso.pwi
Warning: card &CELL ignored
Warning: card / ignored

     Current dimensions of program PWSCF are:
     Max number of different atomic species (ntypx) = 10
     Max number of k-points (npk) =  40000
     Max angular momentum in pseudopotentials (lmaxx) =  4

     IMPORTANT: XC functional enforced from input :
     Exchange-correlation= VDW-DF2-B86R
                           (   1   4  26   0   2   0   0)
     Any further DFT definition will be discarded
     Please, verify this is what you really want

 
     R & G space division:  proc/nbgrp/npool/nimage =       4
     Subspace diagonalization in iterative solution of the eigenvalue problem:
     a serial algorithm will be used

 
     Parallelization info
     --------------------
     sticks:   dense  smooth     PW     G-vecs:    dense   smooth      PW
     Min         271     137     41                28481    10067    1796
     Max         272     139     44                28485    10069    1803
     Sum        1085     551    167               113933    40273    7201
 
     Using Slab Decomposition
 


     bravais-lattice index     =            0
     lattice parameter (alat)  =       5.6973  a.u.
     unit-cell volume          =     642.1518 (a.u.)^3
     number of atoms/cell      =            4
     number of atomic types    =            2
     number of electrons       =         8.00
     number of Kohn-Sham states=            8
     kinetic-energy cutoff     =      60.0000  Ry
     charge density cutoff     =     480.0000  Ry
     scf convergence threshold =      1.0E-09
     mixing beta               =       0.7000
     number of iterations used =            8  plain     mixing
     Exchange-correlation= VDW-DF2-B86R
                           (   1   4  26   0   2   0   0)

     celldm(1)=   5.697334  celldm(2)=   0.000000  celldm(3)=   0.000000
     celldm(4)=   0.000000  celldm(5)=   0.000000  celldm(6)=   0.000000

     crystal axes: (cart. coord. in units of alat)
               a(1) = (   0.999994  -0.003591   0.000000 )  
               a(2) = (   0.503167   0.875437   0.000000 )  
               a(3) = (   0.000000   0.000000   3.958265 )  

     reciprocal axes: (cart. coord. in units 2 pi/alat)
               b(1) = (  0.997946 -0.573581  0.000000 )  
               b(2) = (  0.004094  1.139933  0.000000 )  
               b(3) = (  0.000000  0.000000  0.252636 )  


     PseudoPot. # 1 for B  read from file:
     /home/krojas/github_files/MatSciToolKit/tutorial/example_ase_vib_1/b_pbe_v1.4.uspp.F.UPF
     MD5 check sum: cc6de2960df11db49a60e589f9ebb39b
     Pseudo is Ultrasoft + core correction, Zval =  3.0
     Generated by new atomic code, or converted to UPF format
     Using radial grid of  781 points,  4 beta functions with: 
                l(1) =   0
                l(2) =   0
                l(3) =   1
                l(4) =   1
     Q(r) pseudized with  8 coefficients,  rinner =    1.100   1.100   1.100


     PseudoPot. # 2 for H  read from file:
     /home/krojas/github_files/MatSciToolKit/tutorial/example_ase_vib_1/h_pbe_v1.4.uspp.F.UPF
     MD5 check sum: 761ae9a214b05c3daf00ab9f6b793d6f
     Pseudo is Ultrasoft, Zval =  1.0
     Generated by new atomic code, or converted to UPF format
     Using radial grid of  615 points,  2 beta functions with: 
                l(1) =   0
                l(2) =   0
     Q(r) pseudized with  8 coefficients,  rinner =    0.700

     atomic species   valence    mass     pseudopotential
        B              3.00    10.81000     B ( 1.00)
        H              1.00     1.00800     H ( 1.00)

     No symmetry found



   Cartesian axes

     site n.     atom                  positions (alat units)
         1           B   tau(   1) = (   0.0000000   0.0000000   1.9791325  )
         2           B   tau(   2) = (   0.5009657   0.2715580   1.9791325  )
         3           H   tau(   3) = (   0.5020846   0.5735104   2.3031518  )
         4           H   tau(   4) = (   0.5020846   0.5735104   1.6584302  )

     number of k points=    74  Gaussian smearing, width (Ry)=  0.0100
                       cart. coord. in units 2pi/alat
        k(    1) = (   0.0000000   0.0000000   0.0000000), wk =   0.0138889
        k(    2) = (   0.0003412   0.0949944   0.0000000), wk =   0.0277778
        k(    3) = (   0.0006823   0.1899889   0.0000000), wk =   0.0277778
        k(    4) = (   0.0010235   0.2849833   0.0000000), wk =   0.0277778
        k(    5) = (   0.0013646   0.3799777   0.0000000), wk =   0.0277778
        k(    6) = (   0.0017058   0.4749722   0.0000000), wk =   0.0277778
        k(    7) = (  -0.0020470  -0.5699666   0.0000000), wk =   0.0138889
        k(    8) = (   0.0831622  -0.0477984   0.0000000), wk =   0.0277778
        k(    9) = (   0.0835034   0.0471960   0.0000000), wk =   0.0277778
        k(   10) = (   0.0838445   0.1421905   0.0000000), wk =   0.0277778
        k(   11) = (   0.0841857   0.2371849   0.0000000), wk =   0.0277778
        k(   12) = (   0.0845269   0.3321793   0.0000000), wk =   0.0277778
        k(   13) = (   0.0848680   0.4271738   0.0000000), wk =   0.0277778
        k(   14) = (   0.0811152  -0.6177650   0.0000000), wk =   0.0277778
        k(   15) = (   0.0814564  -0.5227706   0.0000000), wk =   0.0277778
        k(   16) = (   0.0817976  -0.4277762   0.0000000), wk =   0.0277778
        k(   17) = (   0.0821387  -0.3327817   0.0000000), wk =   0.0277778
        k(   18) = (   0.0824799  -0.2377873   0.0000000), wk =   0.0277778
        k(   19) = (   0.0828210  -0.1427928   0.0000000), wk =   0.0277778
        k(   20) = (   0.1663244  -0.0955968   0.0000000), wk =   0.0277778
        k(   21) = (   0.1666656  -0.0006024   0.0000000), wk =   0.0277778
        k(   22) = (   0.1670067   0.0943921   0.0000000), wk =   0.0277778
        k(   23) = (   0.1673479   0.1893865   0.0000000), wk =   0.0277778
        k(   24) = (   0.1676891   0.2843809   0.0000000), wk =   0.0277778
        k(   25) = (   0.1680302   0.3793754   0.0000000), wk =   0.0277778
        k(   26) = (   0.1642774  -0.6655634   0.0000000), wk =   0.0277778
        k(   27) = (   0.1646186  -0.5705690   0.0000000), wk =   0.0277778
        k(   28) = (   0.1649598  -0.4755746   0.0000000), wk =   0.0277778
        k(   29) = (   0.1653009  -0.3805801   0.0000000), wk =   0.0277778
        k(   30) = (   0.1656421  -0.2855857   0.0000000), wk =   0.0277778
        k(   31) = (   0.1659833  -0.1905913   0.0000000), wk =   0.0277778
        k(   32) = (   0.2494866  -0.1433952   0.0000000), wk =   0.0277778
        k(   33) = (   0.2498278  -0.0484008   0.0000000), wk =   0.0277778
        k(   34) = (   0.2501689   0.0465936   0.0000000), wk =   0.0277778
        k(   35) = (   0.2505101   0.1415881   0.0000000), wk =   0.0277778
        k(   36) = (   0.2508513   0.2365825   0.0000000), wk =   0.0277778
        k(   37) = (   0.2511924   0.3315769   0.0000000), wk =   0.0277778
        k(   38) = (   0.2474397  -0.7133618   0.0000000), wk =   0.0277778
        k(   39) = (   0.2477808  -0.6183674   0.0000000), wk =   0.0277778
        k(   40) = (   0.2481220  -0.5233730   0.0000000), wk =   0.0277778
        k(   41) = (   0.2484631  -0.4283785   0.0000000), wk =   0.0277778
        k(   42) = (   0.2488043  -0.3333841   0.0000000), wk =   0.0277778
        k(   43) = (   0.2491455  -0.2383897   0.0000000), wk =   0.0277778
        k(   44) = (   0.3326488  -0.1911936   0.0000000), wk =   0.0277778
        k(   45) = (   0.3329900  -0.0961992   0.0000000), wk =   0.0277778
        k(   46) = (   0.3333312  -0.0012048   0.0000000), wk =   0.0277778
        k(   47) = (   0.3336723   0.0937897   0.0000000), wk =   0.0277778
        k(   48) = (   0.3340135   0.1887841   0.0000000), wk =   0.0277778
        k(   49) = (   0.3343546   0.2837785   0.0000000), wk =   0.0277778
        k(   50) = (   0.3306019  -0.7611603   0.0000000), wk =   0.0277778
        k(   51) = (   0.3309430  -0.6661658   0.0000000), wk =   0.0277778
        k(   52) = (   0.3312842  -0.5711714   0.0000000), wk =   0.0277778
        k(   53) = (   0.3316253  -0.4761769   0.0000000), wk =   0.0277778
        k(   54) = (   0.3319665  -0.3811825   0.0000000), wk =   0.0277778
        k(   55) = (   0.3323077  -0.2861881   0.0000000), wk =   0.0277778
        k(   56) = (   0.4158110  -0.2389921   0.0000000), wk =   0.0277778
        k(   57) = (   0.4161522  -0.1439976   0.0000000), wk =   0.0277778
        k(   58) = (   0.4164934  -0.0490032   0.0000000), wk =   0.0277778
        k(   59) = (   0.4168345   0.0459913   0.0000000), wk =   0.0277778
        k(   60) = (   0.4171757   0.1409857   0.0000000), wk =   0.0277778
        k(   61) = (   0.4175169   0.2359801   0.0000000), wk =   0.0277778
        k(   62) = (   0.4137641  -0.8089587   0.0000000), wk =   0.0277778
        k(   63) = (   0.4141052  -0.7139642   0.0000000), wk =   0.0277778
        k(   64) = (   0.4144464  -0.6189698   0.0000000), wk =   0.0277778
        k(   65) = (   0.4147876  -0.5239754   0.0000000), wk =   0.0277778
        k(   66) = (   0.4151287  -0.4289809   0.0000000), wk =   0.0277778
        k(   67) = (   0.4154699  -0.3339865   0.0000000), wk =   0.0277778
        k(   68) = (  -0.4989732   0.2867905   0.0000000), wk =   0.0138889
        k(   69) = (  -0.4986321   0.3817849   0.0000000), wk =   0.0277778
        k(   70) = (  -0.4982909   0.4767793   0.0000000), wk =   0.0277778
        k(   71) = (  -0.4979498   0.5717738   0.0000000), wk =   0.0277778
        k(   72) = (  -0.4976086   0.6667682   0.0000000), wk =   0.0277778
        k(   73) = (  -0.4972674   0.7617626   0.0000000), wk =   0.0277778
        k(   74) = (  -0.5010202  -0.2831762   0.0000000), wk =   0.0138889

     Dense  grid:   113933 G-vectors     FFT dimensions: (  40,  45, 160)

     Smooth grid:    40273 G-vectors     FFT dimensions: (  30,  30, 120)

     Estimated max dynamical RAM per process >      51.09 MB

     Estimated total dynamical RAM >     204.35 MB

     Initial potential from superposition of free atoms

     starting charge       7.9994, renormalised to       8.0000

     negative rho (up, down):  1.261E-05 0.000E+00


     %%%%%%%%%%%%%%%%%%%%%%%%%%%%%%%%%%%%%%%%%%%%%%%%%%%%%%%%%%%%%%%%%%%%%%%%
     %                                                                      %
     % You are using vdW-DF, which was implemented by the Thonhauser group. %
     % Please cite the following two papers that made this development      %
     % possible and the two reviews that describe the various versions:     %
     %                                                                      %
     %   T. Thonhauser et al., PRL 115, 136402 (2015).                      %
     %   T. Thonhauser et al., PRB 76, 125112 (2007).                       %
     %   K. Berland et al., Rep. Prog. Phys. 78, 066501 (2015).             %
     %   D.C. Langreth et al., J. Phys.: Condens. Matter 21, 084203 (2009). %
     %                                                                      %
     % If you are calculating stress with vdW-DF, please also cite:         %
     %                                                                      %
     %   R. Sabatini et al., J. Phys.: Condens. Matter 24, 424209 (2012).   %
     %                                                                      %
     %%%%%%%%%%%%%%%%%%%%%%%%%%%%%%%%%%%%%%%%%%%%%%%%%%%%%%%%%%%%%%%%%%%%%%%%

     %%%%%%%%%%%%%%%%%%%%%%%%%%%%%%%%%%%%%%%%%%%%%%%%%%%%%%%%%%%%%%%%%%%%%%%%
     %                                                                      %
     %  vdW-DF NEWS:                                                        %
     %                                                                      %
     %  * vdW-DF3 is now available. DOI: 10.1021/acs.jctc.0c00471           %
     %    use with input_dft = 'vdW-DF3-opt1' or 'vdW-DF3-opt2'             %
     %                                                                      %
     %  * Unscreened and range-separated hybrid vdW-DF-cx functionals       %
     %    DOI: 10.1063/1.4986522 and 10.1088/1361-648X/ac2ad2               %
     %    use with input_dft = 'vdW-DF-cx0'    and 'vdW-DF-ahcx'            %
     %  * Unscreened and range-separated hybrid vdW-DF2-b86r functionals    %
     %    DOI: 10.1063/1.4986522 and DOI: 10.1103/PhysRevX.12.041003        %
     %    use with input_dft = 'vdW-DF2-br0' and 'vdW-DF2-ahbr'             %
     %                                                                      %
     %%%%%%%%%%%%%%%%%%%%%%%%%%%%%%%%%%%%%%%%%%%%%%%%%%%%%%%%%%%%%%%%%%%%%%%%


     Starting wfcs are   10 randomized atomic wfcs

     total cpu time spent up to now is       27.2 secs

     per-process dynamical memory:    97.9 Mb

     Self-consistent Calculation

     iteration #  1     ecut=    60.00 Ry     beta= 0.70
     Davidson diagonalization with overlap
     ethr =  1.00E-02,  avg # of iterations =  3.9

     negative rho (up, down):  1.281E-05 0.000E+00

     total cpu time spent up to now is       30.4 secs

     total energy              =     -15.04502601 Ry
     estimated scf accuracy    <       0.32911231 Ry

     iteration #  2     ecut=    60.00 Ry     beta= 0.70
     Davidson diagonalization with overlap
     ethr =  4.11E-03,  avg # of iterations =  3.8

     negative rho (up, down):  2.163E-05 0.000E+00

     total cpu time spent up to now is       33.3 secs

     total energy              =     -15.10065182 Ry
     estimated scf accuracy    <       0.01965511 Ry

     iteration #  3     ecut=    60.00 Ry     beta= 0.70
     Davidson diagonalization with overlap
     ethr =  2.46E-04,  avg # of iterations =  4.7

     negative rho (up, down):  3.064E-05 0.000E+00

     total cpu time spent up to now is       36.4 secs

     total energy              =     -15.10414469 Ry
     estimated scf accuracy    <       0.00064140 Ry

     iteration #  4     ecut=    60.00 Ry     beta= 0.70
     Davidson diagonalization with overlap
     ethr =  8.02E-06,  avg # of iterations =  5.6

     negative rho (up, down):  3.142E-05 0.000E+00

     total cpu time spent up to now is       39.8 secs

     total energy              =     -15.10423587 Ry
     estimated scf accuracy    <       0.00009871 Ry

     iteration #  5     ecut=    60.00 Ry     beta= 0.70
     Davidson diagonalization with overlap
     ethr =  1.23E-06,  avg # of iterations =  3.2

     negative rho (up, down):  3.279E-05 0.000E+00

     total cpu time spent up to now is       42.4 secs

     total energy              =     -15.10426172 Ry
     estimated scf accuracy    <       0.00000725 Ry

     iteration #  6     ecut=    60.00 Ry     beta= 0.70
     Davidson diagonalization with overlap
     ethr =  9.07E-08,  avg # of iterations =  2.0

     negative rho (up, down):  3.306E-05 0.000E+00

     total cpu time spent up to now is       44.7 secs

     total energy              =     -15.10426322 Ry
     estimated scf accuracy    <       0.00000021 Ry

     iteration #  7     ecut=    60.00 Ry     beta= 0.70
     Davidson diagonalization with overlap
     ethr =  2.62E-09,  avg # of iterations =  2.2

     negative rho (up, down):  3.313E-05 0.000E+00

     total cpu time spent up to now is       47.5 secs

     total energy              =     -15.10426327 Ry
     estimated scf accuracy    <          7.9E-09 Ry

     iteration #  8     ecut=    60.00 Ry     beta= 0.70
     Davidson diagonalization with overlap
     ethr =  9.85E-11,  avg # of iterations =  2.6

     negative rho (up, down):  3.313E-05 0.000E+00

     total cpu time spent up to now is       50.0 secs

     End of self-consistent calculation

          k = 0.0000 0.0000 0.0000 (  5017 PWs)   bands (ev):

   -14.5041  -8.8469  -3.0704  -0.6409   0.5530   1.9335   2.9001   5.6109

          k = 0.0003 0.0950 0.0000 (  4979 PWs)   bands (ev):

   -14.4052  -8.7291  -3.4577  -0.8870   0.6745   2.0748   3.0274   5.7172

          k = 0.0007 0.1900 0.0000 (  4988 PWs)   bands (ev):

   -14.1132  -8.3812  -4.4481  -1.4520   1.0560   2.4813   3.4167   3.9720

          k = 0.0010 0.2850 0.0000 (  5020 PWs)   bands (ev):

   -13.6463  -7.8229  -5.7185  -2.0668   1.7001   1.9148   3.2951   4.0414

          k = 0.0014 0.3800 0.0000 (  5038 PWs)   bands (ev):

   -13.0501  -7.1065  -7.0005  -2.5727   0.1933   2.5634   4.2634   4.6333

          k = 0.0017 0.4750 0.0000 (  5038 PWs)   bands (ev):

   -12.4487  -8.0526  -6.3728  -2.8966  -1.1667   3.4337   4.9245   5.5226

          k =-0.0020-0.5700 0.0000 (  5036 PWs)   bands (ev):

   -12.1552  -8.5016  -6.0095  -3.0074  -1.7418   3.7641   5.6288   6.1096

          k = 0.0832-0.0478 0.0000 (  5007 PWs)   bands (ev):

   -14.4054  -8.7460  -3.3480  -1.0276   0.6881   2.0747   3.0416   5.6799

          k = 0.0835 0.0472 0.0000 (  5007 PWs)   bands (ev):

   -14.4054  -8.7460  -3.3481  -1.0275   0.6881   2.0747   3.0416   5.6804

          k = 0.0838 0.1422 0.0000 (  5003 PWs)   bands (ev):

   -14.2102  -8.5149  -4.0402  -1.4307   0.9396   2.3502   3.3016   4.8564

          k = 0.0842 0.2372 0.0000 (  5010 PWs)   bands (ev):

   -13.8307  -8.0646  -5.1402  -2.0683   1.4583   2.6317   3.1980   3.8268

          k = 0.0845 0.3322 0.0000 (  5029 PWs)   bands (ev):

   -13.2964  -7.4287  -6.3796  -2.6881   1.0311   2.2307   3.8429   4.5593

          k = 0.0849 0.4272 0.0000 (  5030 PWs)   bands (ev):

   -12.6831  -7.5336  -6.6935  -3.1443  -0.4963   3.1800   4.9534   5.1274

          k = 0.0811-0.6178 0.0000 (  5055 PWs)   bands (ev):

   -12.1947  -8.3114  -6.1021  -3.3812  -1.4938   3.9676   5.5636   6.2826

          k = 0.0815-0.5228 0.0000 (  5055 PWs)   bands (ev):

   -12.1947  -8.3114  -6.1021  -3.3812  -1.4938   3.9676   5.5637   6.2826

          k = 0.0818-0.4278 0.0000 (  5030 PWs)   bands (ev):

   -12.6831  -7.5336  -6.6935  -3.1443  -0.4962   3.1800   4.9534   5.1274

          k = 0.0821-0.3328 0.0000 (  5029 PWs)   bands (ev):

   -13.2964  -7.4287  -6.3796  -2.6882   1.0311   2.2307   3.8429   4.5592

          k = 0.0825-0.2378 0.0000 (  5010 PWs)   bands (ev):

   -13.8307  -8.0646  -5.1401  -2.0684   1.4583   2.6317   3.1981   3.8269

          k = 0.0828-0.1428 0.0000 (  5003 PWs)   bands (ev):

   -14.2102  -8.5149  -4.0401  -1.4309   0.9396   2.3502   3.3016   4.8566

          k = 0.1663-0.0956 0.0000 (  5007 PWs)   bands (ev):

   -14.1155  -8.4535  -4.1046  -1.8930   1.1003   2.4868   3.4693   5.3246

          k = 0.1667-0.0006 0.0000 (  4991 PWs)   bands (ev):

   -14.2112  -8.5650  -3.7481  -1.8018   0.9724   2.3550   3.3378   5.9994

          k = 0.1670 0.0944 0.0000 (  5007 PWs)   bands (ev):

   -14.1155  -8.4535  -4.1049  -1.8926   1.1003   2.4868   3.4693   5.3242

          k = 0.1673 0.1894 0.0000 (  5031 PWs)   bands (ev):

   -13.8338  -8.1258  -4.9223  -2.3460   1.4889   2.7941   3.7090   3.8674

          k = 0.1677 0.2844 0.0000 (  5037 PWs)   bands (ev):

   -13.3867  -7.6056  -5.9212  -3.0726   1.7863   2.1436   3.7350   4.5341

          k = 0.1680 0.3794 0.0000 (  5046 PWs)   bands (ev):

   -12.8246  -6.9637  -6.9420  -3.7451   0.3049   3.0359   4.6603   5.4058

          k = 0.1643-0.6656 0.0000 (  5071 PWs)   bands (ev):

   -12.2740  -7.8276  -6.3113  -4.1805  -0.8588   4.0537   5.7889   6.1155

          k = 0.1646-0.5706 0.0000 (  5067 PWs)   bands (ev):

   -12.0151  -8.2018  -6.0110  -4.3280  -1.3370   4.6576   6.5042   6.5518

          k = 0.1650-0.4756 0.0000 (  5071 PWs)   bands (ev):

   -12.2739  -7.8276  -6.3113  -4.1805  -0.8587   4.0537   5.7890   6.1156

          k = 0.1653-0.3806 0.0000 (  5048 PWs)   bands (ev):

   -12.8245  -6.9636  -6.9420  -3.7452   0.3050   3.0359   4.6603   5.4058

          k = 0.1656-0.2856 0.0000 (  5037 PWs)   bands (ev):

   -13.3866  -7.6055  -5.9211  -3.0728   1.7865   2.1437   3.7350   4.5342

          k = 0.1660-0.1906 0.0000 (  5031 PWs)   bands (ev):

   -13.8338  -8.1258  -4.9220  -2.3464   1.4889   2.7941   3.7092   3.8675

          k = 0.2495-0.1434 0.0000 (  5031 PWs)   bands (ev):

   -13.6569  -8.0043  -5.1826  -2.7665   1.7919   3.0014   3.9861   4.1803

          k = 0.2498-0.0484 0.0000 (  5026 PWs)   bands (ev):

   -13.8368  -8.2063  -4.5566  -2.8009   1.5307   2.8941   3.9169   5.1430

          k = 0.2502 0.0466 0.0000 (  5026 PWs)   bands (ev):

   -13.8368  -8.2063  -4.5568  -2.8006   1.5307   2.8941   3.9169   5.1427

          k = 0.2505 0.1416 0.0000 (  5031 PWs)   bands (ev):

   -13.6570  -8.0044  -5.1830  -2.7660   1.7918   3.0013   3.9858   4.1802

          k = 0.2509 0.2366 0.0000 (  5038 PWs)   bands (ev):

   -13.3122  -7.6183  -5.9510  -3.2333   2.1888   2.3132   3.9523   4.7009

          k = 0.2512 0.3316 0.0000 (  5053 PWs)   bands (ev):

   -12.8407  -7.0931  -6.6861  -4.0599   0.9662   3.0864   4.6871   5.5033

          k = 0.2474-0.7134 0.0000 (  5056 PWs)   bands (ev):

   -12.3286  -7.3320  -6.5271  -4.8292  -0.0879   4.0578   5.5495   6.4541

          k = 0.2478-0.6184 0.0000 (  5062 PWs)   bands (ev):

   -11.9553  -7.7649  -6.1197  -5.2632  -0.7436   4.9873   5.9095   6.9562

          k = 0.2481-0.5234 0.0000 (  5062 PWs)   bands (ev):

   -11.9552  -7.7649  -6.1197  -5.2633  -0.7435   4.9874   5.9095   6.9564

          k = 0.2485-0.4284 0.0000 (  5056 PWs)   bands (ev):

   -12.3285  -7.3319  -6.5271  -4.8294  -0.0877   4.0579   5.5495   6.4542

          k = 0.2488-0.3334 0.0000 (  5053 PWs)   bands (ev):

   -12.8406  -7.0931  -6.6859  -4.0603   0.9665   3.0865   4.6871   5.5034

          k = 0.2491-0.2384 0.0000 (  5038 PWs)   bands (ev):

   -13.3122  -7.6182  -5.9506  -3.2338   2.1891   2.3133   3.9524   4.7010

          k = 0.3326-0.1912 0.0000 (  5036 PWs)   bands (ev):

   -13.0853  -7.4744  -6.3576  -3.4180   2.1919   2.7477   4.3960   4.7721

          k = 0.3330-0.0962 0.0000 (  5043 PWs)   bands (ev):

   -13.3184  -7.7192  -5.6547  -3.5992   2.3592   3.1738   4.0588   4.7745

          k = 0.3333-0.0012 0.0000 (  5043 PWs)   bands (ev):

   -13.3993  -7.8044  -5.2122  -3.9147   2.2272   3.5421   4.1921   4.6407

          k = 0.3337 0.0938 0.0000 (  5043 PWs)   bands (ev):

   -13.3184  -7.7192  -5.6551  -3.5986   2.3591   3.1735   4.0586   4.7744

          k = 0.3340 0.1888 0.0000 (  5036 PWs)   bands (ev):

   -13.0854  -7.4745  -6.3580  -3.4173   2.1914   2.7476   4.3959   4.7729

          k = 0.3344 0.2838 0.0000 (  5056 PWs)   bands (ev):

   -12.7335  -7.1074  -6.9428  -3.8750   1.2523   3.3784   5.0401   5.1497

          k = 0.3306-0.7612 0.0000 (  5051 PWs)   bands (ev):

   -12.3312  -7.2986  -6.6894  -4.7669   0.5135   4.2179   5.7130   6.3293

          k = 0.3309-0.6662 0.0000 (  5056 PWs)   bands (ev):

   -11.9946  -7.3758  -6.3401  -5.6620   0.0302   5.0909   5.4946   7.1078

          k = 0.3313-0.5712 0.0000 (  5049 PWs)   bands (ev):

   -11.8604  -7.3090  -6.2002  -6.0931  -0.1414   5.2331   5.5019   7.5009

          k = 0.3316-0.4762 0.0000 (  5056 PWs)   bands (ev):

   -11.9945  -7.3756  -6.3401  -5.6624   0.0304   5.0910   5.4944   7.1082

          k = 0.3320-0.3812 0.0000 (  5051 PWs)   bands (ev):

   -12.3311  -7.2983  -6.6894  -4.7674   0.5138   4.2181   5.7129   6.3284

          k = 0.3323-0.2862 0.0000 (  5056 PWs)   bands (ev):

   -12.7334  -7.1074  -6.9425  -3.8755   1.2527   3.3786   5.0402   5.1488

          k = 0.4158-0.2390 0.0000 (  5035 PWs)   bands (ev):

   -12.5354  -7.3321  -7.0081  -3.8072   1.2099   3.9082   4.5801   5.6228

          k = 0.4162-0.1440 0.0000 (  5059 PWs)   bands (ev):

   -12.7424  -7.2021  -6.7702  -4.0866   1.9341   3.4287   4.9610   5.2036

          k = 0.4165-0.0490 0.0000 (  5060 PWs)   bands (ev):

   -12.8612  -7.3126  -6.0781  -4.7517   2.7533   3.1742   4.3846   5.6273

          k = 0.4168 0.0460 0.0000 (  5060 PWs)   bands (ev):

   -12.8612  -7.3126  -6.0784  -4.7513   2.7529   3.1742   4.3847   5.6273

          k = 0.4172 0.1410 0.0000 (  5059 PWs)   bands (ev):

   -12.7425  -7.2021  -6.7707  -4.0859   1.9336   3.4286   4.9610   5.2044

          k = 0.4175 0.2360 0.0000 (  5035 PWs)   bands (ev):

   -12.5355  -7.3324  -7.0082  -3.8065   1.2094   3.9081   4.5809   5.6227

          k = 0.4138-0.8090 0.0000 (  5051 PWs)   bands (ev):

   -12.3012  -7.5913  -6.7835  -4.2244   0.7781   4.5321   5.0568   6.3313

          k = 0.4141-0.7140 0.0000 (  5056 PWs)   bands (ev):

   -12.1141  -7.4655  -6.5910  -5.1153   0.6570   5.0581   5.7482   6.3027

          k = 0.4144-0.6190 0.0000 (  5053 PWs)   bands (ev):

   -12.0186  -6.9509  -6.4825  -6.0971   0.7157   4.9351   5.1672   7.2480

          k = 0.4148-0.5240 0.0000 (  5053 PWs)   bands (ev):

   -12.0186  -6.9505  -6.4825  -6.0975   0.7159   4.9349   5.1672   7.2485

          k = 0.4151-0.4290 0.0000 (  5056 PWs)   bands (ev):

   -12.1140  -7.4651  -6.5910  -5.1158   0.6574   5.0581   5.7479   6.3018

          k = 0.4155-0.3340 0.0000 (  5051 PWs)   bands (ev):

   -12.3011  -7.5910  -6.7834  -4.2251   0.7786   4.5322   5.0560   6.3314

          k =-0.4990 0.2868 0.0000 (  5038 PWs)   bands (ev):

   -12.2829  -7.7353  -6.8135  -3.9363   0.8304   4.4955   4.7992   6.2497

          k =-0.4986 0.3818 0.0000 (  5049 PWs)   bands (ev):

   -12.3066  -7.5345  -6.8252  -4.2922   1.0124   4.5836   5.0422   6.1753

          k =-0.4983 0.4768 0.0000 (  5054 PWs)   bands (ev):

   -12.3520  -6.9807  -6.8479  -5.1174   1.4637   4.2978   5.1666   6.3820

          k =-0.4979 0.5718 0.0000 (  5075 PWs)   bands (ev):

   -12.3738  -6.8599  -6.3667  -5.8513   1.7707   4.1883   4.6299   6.6780

          k =-0.4976 0.6668 0.0000 (  5054 PWs)   bands (ev):

   -12.3520  -6.9811  -6.8480  -5.1168   1.4633   4.2978   5.1669   6.3828

          k =-0.4973 0.7618 0.0000 (  5049 PWs)   bands (ev):

   -12.3067  -7.5349  -6.8252  -4.2915   1.0119   4.5835   5.0431   6.1753

          k =-0.5010-0.2832 0.0000 (  5038 PWs)   bands (ev):

   -12.2830  -7.7356  -6.8135  -3.9356   0.8298   4.4963   4.7991   6.2491

     the Fermi energy is    -1.2430 ev

!    total energy              =     -15.10426327 Ry
     estimated scf accuracy    <          3.1E-10 Ry
     smearing contrib. (-TS)   =      -0.00015471 Ry
     internal energy E=F+TS    =     -15.10410856 Ry

     The total energy is F=E-TS. E is the sum of the following terms:
     one-electron contribution =     -65.53832627 Ry
     hartree contribution      =      34.33257359 Ry
     xc contribution           =      -7.33501425 Ry
     ewald contribution        =      23.43665836 Ry

     convergence has been achieved in   8 iterations

     negative rho (up, down):  3.313E-05 0.000E+00

     Forces acting on atoms (cartesian axes, Ry/au):

     atom    1 type  1   force =    -0.00002464    0.00302418    0.00218487
     atom    2 type  1   force =     0.00002900   -0.00300171    0.00218421
     atom    3 type  2   force =    -0.00000216   -0.00001091   -0.00418138
     atom    4 type  2   force =    -0.00000221   -0.00001157   -0.00018769
     The non-local contrib.  to forces
     atom    1 type  1   force =    -0.00130805   -0.35316311    0.00239865
     atom    2 type  1   force =     0.00132939    0.35320368    0.00239810
     atom    3 type  2   force =    -0.00000677    0.00000413   -0.11259242
     atom    4 type  2   force =    -0.00000723    0.00000425    0.11411925
     The ionic contribution  to forces
     atom    1 type  1   force =     0.00240153    0.68607721    0.00127175
     atom    2 type  1   force =    -0.00249593   -0.68599499    0.00127032
     atom    3 type  2   force =     0.00004666   -0.00004043    2.57263298
     atom    4 type  2   force =     0.00004773   -0.00004178   -2.57517505
     The local contribution  to forces
     atom    1 type  1   force =    -0.00114736   -0.33764821   -0.00137718
     atom    2 type  1   force =     0.00122534    0.33754987   -0.00137589
     atom    3 type  2   force =    -0.00004188    0.00002532   -2.46422507
     atom    4 type  2   force =    -0.00004255    0.00002588    2.46086838
     The core correction contribution to forces
     atom    1 type  1   force =     0.00002928    0.00776505   -0.00011336
     atom    2 type  1   force =    -0.00002949   -0.00776714   -0.00011336
     atom    3 type  2   force =     0.00000000    0.00000000    0.00000000
     atom    4 type  2   force =     0.00000000    0.00000000    0.00000000
     The Hubbard contrib.    to forces
     atom    1 type  1   force =     0.00000000    0.00000000    0.00000000
     atom    2 type  1   force =     0.00000000    0.00000000    0.00000000
     atom    3 type  2   force =     0.00000000    0.00000000    0.00000000
     atom    4 type  2   force =     0.00000000    0.00000000    0.00000000
     The SCF correction term to forces
     atom    1 type  1   force =     0.00000013   -0.00000683    0.00000440
     atom    2 type  1   force =    -0.00000014    0.00000681    0.00000441
     atom    3 type  2   force =    -0.00000000    0.00000001    0.00000251
     atom    4 type  2   force =    -0.00000001    0.00000002   -0.00000090

     Total force =     0.006725     Total SCF correction =     0.000012

     Writing all to output data dir tmpdir/pwscf.save/
 
     init_run     :     26.89s CPU     27.17s WALL (       1 calls)
     electrons    :     18.84s CPU     22.76s WALL (       1 calls)
     forces       :      0.52s CPU      0.63s WALL (       1 calls)

     Called by init_run:
     wfcinit      :      0.70s CPU      0.87s WALL (       1 calls)
     potinit      :     25.98s CPU     26.07s WALL (       1 calls)
     hinit0       :      0.16s CPU      0.17s WALL (       1 calls)

     Called by electrons:
     c_bands      :     14.25s CPU     17.23s WALL (       8 calls)
     sum_band     :      2.55s CPU      3.04s WALL (       8 calls)
     v_of_rho     :     27.60s CPU     28.08s WALL (       9 calls)
     newd         :      0.21s CPU      0.25s WALL (       9 calls)
     mix_rho      :      0.04s CPU      0.05s WALL (       8 calls)
     vdW_kernel   :     25.60s CPU     25.62s WALL (       1 calls)

     Called by c_bands:
     init_us_2    :      0.26s CPU      0.30s WALL (    1332 calls)
     init_us_2:cp :      0.25s CPU      0.30s WALL (    1332 calls)
     cegterg      :     13.72s CPU     16.59s WALL (     592 calls)

     Called by *egterg:
     cdiaghg      :      0.41s CPU      0.49s WALL (    2662 calls)
     h_psi        :     12.18s CPU     14.76s WALL (    2736 calls)
     s_psi        :      0.18s CPU      0.22s WALL (    2736 calls)
     g_psi        :      0.04s CPU      0.05s WALL (    2070 calls)

     Called by h_psi:
     h_psi:calbec :      0.47s CPU      0.57s WALL (    2736 calls)
     vloc_psi     :     11.37s CPU     13.77s WALL (    2736 calls)
     add_vuspsi   :      0.29s CPU      0.34s WALL (    2736 calls)

     General routines
     calbec       :      0.64s CPU      0.78s WALL (    3624 calls)
     fft          :      1.07s CPU      1.43s WALL (     626 calls)
     ffts         :      0.01s CPU      0.01s WALL (      17 calls)
     fftw         :     11.32s CPU     13.72s WALL (   33260 calls)
     interpolate  :      0.03s CPU      0.03s WALL (       9 calls)
 
     Parallel routines
 
     PWSCF        :     46.37s CPU     50.76s WALL

 
   This run was terminated on:  10:32:46   1Dec2023            

=------------------------------------------------------------------------------=
   JOB DONE.
=------------------------------------------------------------------------------=
