
     Program PWSCF v.7.2 starts on  1Dec2023 at 10:20:24 

     This program is part of the open-source Quantum ESPRESSO suite
     for quantum simulation of materials; please cite
         "P. Giannozzi et al., J. Phys.:Condens. Matter 21 395502 (2009);
         "P. Giannozzi et al., J. Phys.:Condens. Matter 29 465901 (2017);
         "P. Giannozzi et al., J. Chem. Phys. 152 154105 (2020);
          URL http://www.quantum-espresso.org", 
     in publications or presentations arising from this work. More details at
     http://www.quantum-espresso.org/quote

     Parallel version (MPI), running on     4 processors

     MPI processes distributed on     1 nodes
     12530 MiB available memory on the printing compute node when the environment starts
 
     Reading input from espresso.pwi
Warning: card &CELL ignored
Warning: card / ignored

     Current dimensions of program PWSCF are:
     Max number of different atomic species (ntypx) = 10
     Max number of k-points (npk) =  40000
     Max angular momentum in pseudopotentials (lmaxx) =  4

     IMPORTANT: XC functional enforced from input :
     Exchange-correlation= VDW-DF2-B86R
                           (   1   4  26   0   2   0   0)
     Any further DFT definition will be discarded
     Please, verify this is what you really want

     Message from routine setup:
     using ibrav=0 with symmetry is DISCOURAGED, use correct ibrav instead
 
     R & G space division:  proc/nbgrp/npool/nimage =       4
     Subspace diagonalization in iterative solution of the eigenvalue problem:
     a serial algorithm will be used

 
     Parallelization info
     --------------------
     sticks:   dense  smooth     PW     G-vecs:    dense   smooth      PW
     Min         271     137     41                28481    10067    1796
     Max         272     139     44                28485    10069    1803
     Sum        1085     551    167               113933    40273    7201
 
     Using Slab Decomposition
 


     bravais-lattice index     =            0
     lattice parameter (alat)  =       5.6973  a.u.
     unit-cell volume          =     642.1518 (a.u.)^3
     number of atoms/cell      =            4
     number of atomic types    =            2
     number of electrons       =         8.00
     number of Kohn-Sham states=            8
     kinetic-energy cutoff     =      60.0000  Ry
     charge density cutoff     =     480.0000  Ry
     scf convergence threshold =      1.0E-09
     mixing beta               =       0.7000
     number of iterations used =            8  plain     mixing
     Exchange-correlation= VDW-DF2-B86R
                           (   1   4  26   0   2   0   0)

     celldm(1)=   5.697334  celldm(2)=   0.000000  celldm(3)=   0.000000
     celldm(4)=   0.000000  celldm(5)=   0.000000  celldm(6)=   0.000000

     crystal axes: (cart. coord. in units of alat)
               a(1) = (   0.999994  -0.003591   0.000000 )  
               a(2) = (   0.503167   0.875437   0.000000 )  
               a(3) = (   0.000000   0.000000   3.958265 )  

     reciprocal axes: (cart. coord. in units 2 pi/alat)
               b(1) = (  0.997946 -0.573581  0.000000 )  
               b(2) = (  0.004094  1.139933  0.000000 )  
               b(3) = (  0.000000  0.000000  0.252636 )  


     PseudoPot. # 1 for B  read from file:
     /home/krojas/github_files/MatSciToolKit/tutorial/example_ase_vib_1/b_pbe_v1.4.uspp.F.UPF
     MD5 check sum: cc6de2960df11db49a60e589f9ebb39b
     Pseudo is Ultrasoft + core correction, Zval =  3.0
     Generated by new atomic code, or converted to UPF format
     Using radial grid of  781 points,  4 beta functions with: 
                l(1) =   0
                l(2) =   0
                l(3) =   1
                l(4) =   1
     Q(r) pseudized with  8 coefficients,  rinner =    1.100   1.100   1.100


     PseudoPot. # 2 for H  read from file:
     /home/krojas/github_files/MatSciToolKit/tutorial/example_ase_vib_1/h_pbe_v1.4.uspp.F.UPF
     MD5 check sum: 761ae9a214b05c3daf00ab9f6b793d6f
     Pseudo is Ultrasoft, Zval =  1.0
     Generated by new atomic code, or converted to UPF format
     Using radial grid of  615 points,  2 beta functions with: 
                l(1) =   0
                l(2) =   0
     Q(r) pseudized with  8 coefficients,  rinner =    0.700

     atomic species   valence    mass     pseudopotential
        B              3.00    10.81000     B ( 1.00)
        H              1.00     1.00800     H ( 1.00)

      2 Sym. Ops. (no inversion) found



   Cartesian axes

     site n.     atom                  positions (alat units)
         1           B   tau(   1) = (   0.0000000   0.0033169   1.9791325  )
         2           B   tau(   2) = (   0.5009657   0.2715580   1.9791325  )
         3           H   tau(   3) = (   0.5020846   0.5735104   2.2998349  )
         4           H   tau(   4) = (   0.5020846   0.5735104   1.6584302  )

     number of k points=    74  Gaussian smearing, width (Ry)=  0.0100
                       cart. coord. in units 2pi/alat
        k(    1) = (   0.0000000   0.0000000   0.0000000), wk =   0.0138889
        k(    2) = (   0.0003412   0.0949944   0.0000000), wk =   0.0277778
        k(    3) = (   0.0006823   0.1899889   0.0000000), wk =   0.0277778
        k(    4) = (   0.0010235   0.2849833   0.0000000), wk =   0.0277778
        k(    5) = (   0.0013646   0.3799777   0.0000000), wk =   0.0277778
        k(    6) = (   0.0017058   0.4749722   0.0000000), wk =   0.0277778
        k(    7) = (  -0.0020470  -0.5699666   0.0000000), wk =   0.0138889
        k(    8) = (   0.0831622  -0.0477984   0.0000000), wk =   0.0277778
        k(    9) = (   0.0835034   0.0471960   0.0000000), wk =   0.0277778
        k(   10) = (   0.0838445   0.1421905   0.0000000), wk =   0.0277778
        k(   11) = (   0.0841857   0.2371849   0.0000000), wk =   0.0277778
        k(   12) = (   0.0845269   0.3321793   0.0000000), wk =   0.0277778
        k(   13) = (   0.0848680   0.4271738   0.0000000), wk =   0.0277778
        k(   14) = (   0.0811152  -0.6177650   0.0000000), wk =   0.0277778
        k(   15) = (   0.0814564  -0.5227706   0.0000000), wk =   0.0277778
        k(   16) = (   0.0817976  -0.4277762   0.0000000), wk =   0.0277778
        k(   17) = (   0.0821387  -0.3327817   0.0000000), wk =   0.0277778
        k(   18) = (   0.0824799  -0.2377873   0.0000000), wk =   0.0277778
        k(   19) = (   0.0828210  -0.1427928   0.0000000), wk =   0.0277778
        k(   20) = (   0.1663244  -0.0955968   0.0000000), wk =   0.0277778
        k(   21) = (   0.1666656  -0.0006024   0.0000000), wk =   0.0277778
        k(   22) = (   0.1670067   0.0943921   0.0000000), wk =   0.0277778
        k(   23) = (   0.1673479   0.1893865   0.0000000), wk =   0.0277778
        k(   24) = (   0.1676891   0.2843809   0.0000000), wk =   0.0277778
        k(   25) = (   0.1680302   0.3793754   0.0000000), wk =   0.0277778
        k(   26) = (   0.1642774  -0.6655634   0.0000000), wk =   0.0277778
        k(   27) = (   0.1646186  -0.5705690   0.0000000), wk =   0.0277778
        k(   28) = (   0.1649598  -0.4755746   0.0000000), wk =   0.0277778
        k(   29) = (   0.1653009  -0.3805801   0.0000000), wk =   0.0277778
        k(   30) = (   0.1656421  -0.2855857   0.0000000), wk =   0.0277778
        k(   31) = (   0.1659833  -0.1905913   0.0000000), wk =   0.0277778
        k(   32) = (   0.2494866  -0.1433952   0.0000000), wk =   0.0277778
        k(   33) = (   0.2498278  -0.0484008   0.0000000), wk =   0.0277778
        k(   34) = (   0.2501689   0.0465936   0.0000000), wk =   0.0277778
        k(   35) = (   0.2505101   0.1415881   0.0000000), wk =   0.0277778
        k(   36) = (   0.2508513   0.2365825   0.0000000), wk =   0.0277778
        k(   37) = (   0.2511924   0.3315769   0.0000000), wk =   0.0277778
        k(   38) = (   0.2474397  -0.7133618   0.0000000), wk =   0.0277778
        k(   39) = (   0.2477808  -0.6183674   0.0000000), wk =   0.0277778
        k(   40) = (   0.2481220  -0.5233730   0.0000000), wk =   0.0277778
        k(   41) = (   0.2484631  -0.4283785   0.0000000), wk =   0.0277778
        k(   42) = (   0.2488043  -0.3333841   0.0000000), wk =   0.0277778
        k(   43) = (   0.2491455  -0.2383897   0.0000000), wk =   0.0277778
        k(   44) = (   0.3326488  -0.1911936   0.0000000), wk =   0.0277778
        k(   45) = (   0.3329900  -0.0961992   0.0000000), wk =   0.0277778
        k(   46) = (   0.3333312  -0.0012048   0.0000000), wk =   0.0277778
        k(   47) = (   0.3336723   0.0937897   0.0000000), wk =   0.0277778
        k(   48) = (   0.3340135   0.1887841   0.0000000), wk =   0.0277778
        k(   49) = (   0.3343546   0.2837785   0.0000000), wk =   0.0277778
        k(   50) = (   0.3306019  -0.7611603   0.0000000), wk =   0.0277778
        k(   51) = (   0.3309430  -0.6661658   0.0000000), wk =   0.0277778
        k(   52) = (   0.3312842  -0.5711714   0.0000000), wk =   0.0277778
        k(   53) = (   0.3316253  -0.4761769   0.0000000), wk =   0.0277778
        k(   54) = (   0.3319665  -0.3811825   0.0000000), wk =   0.0277778
        k(   55) = (   0.3323077  -0.2861881   0.0000000), wk =   0.0277778
        k(   56) = (   0.4158110  -0.2389921   0.0000000), wk =   0.0277778
        k(   57) = (   0.4161522  -0.1439976   0.0000000), wk =   0.0277778
        k(   58) = (   0.4164934  -0.0490032   0.0000000), wk =   0.0277778
        k(   59) = (   0.4168345   0.0459913   0.0000000), wk =   0.0277778
        k(   60) = (   0.4171757   0.1409857   0.0000000), wk =   0.0277778
        k(   61) = (   0.4175169   0.2359801   0.0000000), wk =   0.0277778
        k(   62) = (   0.4137641  -0.8089587   0.0000000), wk =   0.0277778
        k(   63) = (   0.4141052  -0.7139642   0.0000000), wk =   0.0277778
        k(   64) = (   0.4144464  -0.6189698   0.0000000), wk =   0.0277778
        k(   65) = (   0.4147876  -0.5239754   0.0000000), wk =   0.0277778
        k(   66) = (   0.4151287  -0.4289809   0.0000000), wk =   0.0277778
        k(   67) = (   0.4154699  -0.3339865   0.0000000), wk =   0.0277778
        k(   68) = (  -0.4989732   0.2867905   0.0000000), wk =   0.0138889
        k(   69) = (  -0.4986321   0.3817849   0.0000000), wk =   0.0277778
        k(   70) = (  -0.4982909   0.4767793   0.0000000), wk =   0.0277778
        k(   71) = (  -0.4979498   0.5717738   0.0000000), wk =   0.0277778
        k(   72) = (  -0.4976086   0.6667682   0.0000000), wk =   0.0277778
        k(   73) = (  -0.4972674   0.7617626   0.0000000), wk =   0.0277778
        k(   74) = (  -0.5010202  -0.2831762   0.0000000), wk =   0.0138889

     Dense  grid:   113933 G-vectors     FFT dimensions: (  40,  45, 160)

     Smooth grid:    40273 G-vectors     FFT dimensions: (  30,  30, 120)

     Estimated max dynamical RAM per process >      51.09 MB

     Estimated total dynamical RAM >     204.35 MB

     Initial potential from superposition of free atoms

     starting charge       7.9994, renormalised to       8.0000

     negative rho (up, down):  1.270E-05 0.000E+00


     %%%%%%%%%%%%%%%%%%%%%%%%%%%%%%%%%%%%%%%%%%%%%%%%%%%%%%%%%%%%%%%%%%%%%%%%
     %                                                                      %
     % You are using vdW-DF, which was implemented by the Thonhauser group. %
     % Please cite the following two papers that made this development      %
     % possible and the two reviews that describe the various versions:     %
     %                                                                      %
     %   T. Thonhauser et al., PRL 115, 136402 (2015).                      %
     %   T. Thonhauser et al., PRB 76, 125112 (2007).                       %
     %   K. Berland et al., Rep. Prog. Phys. 78, 066501 (2015).             %
     %   D.C. Langreth et al., J. Phys.: Condens. Matter 21, 084203 (2009). %
     %                                                                      %
     % If you are calculating stress with vdW-DF, please also cite:         %
     %                                                                      %
     %   R. Sabatini et al., J. Phys.: Condens. Matter 24, 424209 (2012).   %
     %                                                                      %
     %%%%%%%%%%%%%%%%%%%%%%%%%%%%%%%%%%%%%%%%%%%%%%%%%%%%%%%%%%%%%%%%%%%%%%%%

     %%%%%%%%%%%%%%%%%%%%%%%%%%%%%%%%%%%%%%%%%%%%%%%%%%%%%%%%%%%%%%%%%%%%%%%%
     %                                                                      %
     %  vdW-DF NEWS:                                                        %
     %                                                                      %
     %  * vdW-DF3 is now available. DOI: 10.1021/acs.jctc.0c00471           %
     %    use with input_dft = 'vdW-DF3-opt1' or 'vdW-DF3-opt2'             %
     %                                                                      %
     %  * Unscreened and range-separated hybrid vdW-DF-cx functionals       %
     %    DOI: 10.1063/1.4986522 and 10.1088/1361-648X/ac2ad2               %
     %    use with input_dft = 'vdW-DF-cx0'    and 'vdW-DF-ahcx'            %
     %  * Unscreened and range-separated hybrid vdW-DF2-b86r functionals    %
     %    DOI: 10.1063/1.4986522 and DOI: 10.1103/PhysRevX.12.041003        %
     %    use with input_dft = 'vdW-DF2-br0' and 'vdW-DF2-ahbr'             %
     %                                                                      %
     %%%%%%%%%%%%%%%%%%%%%%%%%%%%%%%%%%%%%%%%%%%%%%%%%%%%%%%%%%%%%%%%%%%%%%%%


     Starting wfcs are   10 randomized atomic wfcs

     total cpu time spent up to now is       26.6 secs

     per-process dynamical memory:   100.7 Mb

     Self-consistent Calculation

     iteration #  1     ecut=    60.00 Ry     beta= 0.70
     Davidson diagonalization with overlap
     ethr =  1.00E-02,  avg # of iterations =  3.8

     negative rho (up, down):  1.289E-05 0.000E+00

     total cpu time spent up to now is       29.7 secs

     total energy              =     -15.04600016 Ry
     estimated scf accuracy    <       0.32814711 Ry

     iteration #  2     ecut=    60.00 Ry     beta= 0.70
     Davidson diagonalization with overlap
     ethr =  4.10E-03,  avg # of iterations =  3.7

     negative rho (up, down):  2.177E-05 0.000E+00

     total cpu time spent up to now is       32.4 secs

     total energy              =     -15.10082810 Ry
     estimated scf accuracy    <       0.01898381 Ry

     iteration #  3     ecut=    60.00 Ry     beta= 0.70
     Davidson diagonalization with overlap
     ethr =  2.37E-04,  avg # of iterations =  5.0

     negative rho (up, down):  3.083E-05 0.000E+00

     total cpu time spent up to now is       35.4 secs

     total energy              =     -15.10418742 Ry
     estimated scf accuracy    <       0.00059328 Ry

     iteration #  4     ecut=    60.00 Ry     beta= 0.70
     Davidson diagonalization with overlap
     ethr =  7.42E-06,  avg # of iterations =  5.3

     negative rho (up, down):  3.268E-05 0.000E+00

     total cpu time spent up to now is       38.4 secs

     total energy              =     -15.10428179 Ry
     estimated scf accuracy    <       0.00000684 Ry

     iteration #  5     ecut=    60.00 Ry     beta= 0.70
     Davidson diagonalization with overlap
     ethr =  8.55E-08,  avg # of iterations =  3.0

     negative rho (up, down):  3.315E-05 0.000E+00

     total cpu time spent up to now is       41.1 secs

     total energy              =     -15.10428462 Ry
     estimated scf accuracy    <       0.00000040 Ry

     iteration #  6     ecut=    60.00 Ry     beta= 0.70
     Davidson diagonalization with overlap
     ethr =  5.01E-09,  avg # of iterations =  2.1

     negative rho (up, down):  3.329E-05 0.000E+00

     total cpu time spent up to now is       43.4 secs

     total energy              =     -15.10428470 Ry
     estimated scf accuracy    <       0.00000002 Ry

     iteration #  7     ecut=    60.00 Ry     beta= 0.70
     Davidson diagonalization with overlap
     ethr =  2.04E-10,  avg # of iterations =  2.6

     negative rho (up, down):  3.328E-05 0.000E+00

     total cpu time spent up to now is       46.0 secs

     End of self-consistent calculation

          k = 0.0000 0.0000 0.0000 (  5017 PWs)   bands (ev):

   -14.5202  -8.8347  -3.0628  -0.7346   0.5682   1.9397   2.9102   5.4793

          k = 0.0003 0.0950 0.0000 (  4979 PWs)   bands (ev):

   -14.4209  -8.7165  -3.4549  -0.9737   0.6896   2.0810   3.0369   5.6015

          k = 0.0007 0.1900 0.0000 (  4988 PWs)   bands (ev):

   -14.1280  -8.3670  -4.4550  -1.5261   1.0715   2.4882   3.4253   3.9555

          k = 0.0010 0.2850 0.0000 (  5020 PWs)   bands (ev):

   -13.6591  -7.8055  -5.7350  -2.1309   1.7178   1.8982   3.2979   4.0473

          k = 0.0014 0.3800 0.0000 (  5038 PWs)   bands (ev):

   -13.0596  -7.0824  -7.0264  -2.6304   0.1696   2.5830   4.2682   4.6193

          k = 0.0017 0.4750 0.0000 (  5038 PWs)   bands (ev):

   -12.4529  -8.0855  -6.3406  -2.9508  -1.2003   3.4529   4.9014   5.5276

          k =-0.0020-0.5700 0.0000 (  5036 PWs)   bands (ev):

   -12.1555  -8.5393  -5.9699  -3.0606  -1.7829   3.7743   5.6198   6.1132

          k = 0.0832-0.0478 0.0000 (  5007 PWs)   bands (ev):

   -14.4212  -8.7334  -3.3433  -1.1150   0.7033   2.0809   3.0515   5.5682

          k = 0.0835 0.0472 0.0000 (  5007 PWs)   bands (ev):

   -14.4212  -8.7334  -3.3434  -1.1149   0.7033   2.0810   3.0515   5.5683

          k = 0.0838 0.1422 0.0000 (  5003 PWs)   bands (ev):

   -14.2254  -8.5012  -4.0435  -1.5075   0.9549   2.3567   3.3107   4.8412

          k = 0.0842 0.2372 0.0000 (  5010 PWs)   bands (ev):

   -13.8445  -8.0487  -5.1527  -2.1342   1.4745   2.6291   3.1889   3.8348

          k = 0.0845 0.3322 0.0000 (  5029 PWs)   bands (ev):

   -13.3076  -7.4084  -6.4008  -2.7463   1.0108   2.2488   3.8471   4.5633

          k = 0.0849 0.4272 0.0000 (  5030 PWs)   bands (ev):

   -12.6900  -7.5627  -6.6661  -3.1978  -0.5250   3.2020   4.9581   5.1087

          k = 0.0811-0.6178 0.0000 (  5055 PWs)   bands (ev):

   -12.1960  -8.3479  -6.0648  -3.4325  -1.5326   3.9892   5.5438   6.2869

          k = 0.0815-0.5228 0.0000 (  5055 PWs)   bands (ev):

   -12.1960  -8.3480  -6.0648  -3.4324  -1.5326   3.9892   5.5439   6.7028

          k = 0.0818-0.4278 0.0000 (  5030 PWs)   bands (ev):

   -12.6899  -7.5627  -6.6661  -3.1978  -0.5250   3.2020   4.9582   5.1087

          k = 0.0821-0.3328 0.0000 (  5029 PWs)   bands (ev):

   -13.3076  -7.4084  -6.4009  -2.7463   1.0107   2.2488   3.8471   4.5633

          k = 0.0825-0.2378 0.0000 (  5010 PWs)   bands (ev):

   -13.8445  -8.0487  -5.1527  -2.1342   1.4745   2.6291   3.1890   3.8349

          k = 0.0828-0.1428 0.0000 (  5003 PWs)   bands (ev):

   -14.2254  -8.5012  -4.0435  -1.5076   0.9550   2.3568   3.3107   4.8412

          k = 0.1663-0.0956 0.0000 (  5007 PWs)   bands (ev):

   -14.1307  -8.4394  -4.1089  -1.9658   1.1159   2.4934   3.4793   5.3086

          k = 0.1667-0.0006 0.0000 (  4991 PWs)   bands (ev):

   -14.2268  -8.5514  -3.7460  -1.8820   0.9879   2.3615   3.3480   5.8727

          k = 0.1670 0.0944 0.0000 (  5007 PWs)   bands (ev):

   -14.1307  -8.4394  -4.1090  -1.9657   1.1159   2.4934   3.4791   5.3076

          k = 0.1673 0.1894 0.0000 (  5031 PWs)   bands (ev):

   -13.8480  -8.1100  -4.9347  -2.4091   1.5050   2.7991   3.6922   3.8757

          k = 0.1677 0.2844 0.0000 (  5037 PWs)   bands (ev):

   -13.3988  -7.5865  -5.9405  -3.1287   1.7681   2.1607   3.7379   4.5423

          k = 0.1680 0.3794 0.0000 (  5046 PWs)   bands (ev):

   -12.8332  -6.9809  -6.9269  -3.7962   0.2791   3.0567   4.6643   5.4123

          k = 0.1643-0.6656 0.0000 (  5071 PWs)   bands (ev):

   -12.2774  -7.8620  -6.2783  -4.2286  -0.8935   4.0821   5.7911   6.1080

          k = 0.1646-0.5706 0.0000 (  5067 PWs)   bands (ev):

   -12.0149  -8.2407  -5.9723  -4.3751  -1.3777   4.6946   6.5063   6.8054

          k = 0.1650-0.4756 0.0000 (  5071 PWs)   bands (ev):

   -12.2773  -7.8621  -6.2783  -4.2286  -0.8936   4.0821   5.7912   6.1080

          k = 0.1653-0.3806 0.0000 (  5048 PWs)   bands (ev):

   -12.8331  -6.9809  -6.9268  -3.7962   0.2790   3.0568   4.6644   5.4123

          k = 0.1656-0.2856 0.0000 (  5037 PWs)   bands (ev):

   -13.3988  -7.5864  -5.9405  -3.1287   1.7682   2.1608   3.7379   4.5424

          k = 0.1660-0.1906 0.0000 (  5031 PWs)   bands (ev):

   -13.8479  -8.1100  -4.9346  -2.4092   1.5050   2.7992   3.6922   3.8757

          k = 0.2495-0.1434 0.0000 (  5031 PWs)   bands (ev):

   -13.6709  -7.9876  -5.1995  -2.8230   1.8086   3.0040   3.9685   4.1894

          k = 0.2498-0.0484 0.0000 (  5026 PWs)   bands (ev):

   -13.8515  -8.1907  -4.5631  -2.8684   1.5469   2.9010   3.9274   5.1209

          k = 0.2502 0.0466 0.0000 (  5026 PWs)   bands (ev):

   -13.8515  -8.1907  -4.5632  -2.8682   1.5469   2.9009   3.9273   5.1206

          k = 0.2505 0.1416 0.0000 (  5031 PWs)   bands (ev):

   -13.6710  -7.9876  -5.1997  -2.8227   1.8086   3.0039   3.9684   4.1894

          k = 0.2509 0.2366 0.0000 (  5038 PWs)   bands (ev):

   -13.3246  -7.5990  -5.9737  -3.2837   2.1709   2.3302   3.9537   4.7063

          k = 0.2512 0.3316 0.0000 (  5053 PWs)   bands (ev):

   -12.8502  -7.0694  -6.7139  -4.1070   0.9409   3.1066   4.6904   5.5099

          k = 0.2474-0.7134 0.0000 (  5056 PWs)   bands (ev):

   -12.3336  -7.3654  -6.4975  -4.8740  -0.1201   4.0843   5.5487   6.4649

          k = 0.2478-0.6184 0.0000 (  5062 PWs)   bands (ev):

   -11.9558  -7.8046  -6.0836  -5.3064  -0.7825   5.0290   5.8966   6.9618

          k = 0.2481-0.5234 0.0000 (  5062 PWs)   bands (ev):

   -11.9557  -7.8046  -6.0836  -5.3064  -0.7825   5.0290   5.8966   6.9617

          k = 0.2485-0.4284 0.0000 (  5056 PWs)   bands (ev):

   -12.3335  -7.3655  -6.4974  -4.8740  -0.1202   4.0844   5.5487   6.4651

          k = 0.2488-0.3334 0.0000 (  5053 PWs)   bands (ev):

   -12.8501  -7.0694  -6.7139  -4.1071   0.9409   3.1067   4.6905   5.5100

          k = 0.2491-0.2384 0.0000 (  5038 PWs)   bands (ev):

   -13.3245  -7.5990  -5.9736  -3.2838   2.1710   2.3303   3.9538   4.7064

          k = 0.3326-0.1912 0.0000 (  5036 PWs)   bands (ev):

   -13.0971  -7.4538  -6.3852  -3.4627   2.1690   2.7666   4.3985   4.7345

          k = 0.3330-0.0962 0.0000 (  5043 PWs)   bands (ev):

   -13.3314  -7.7004  -5.6751  -3.6509   2.3771   3.1607   4.0519   4.7856

          k = 0.3333-0.0012 0.0000 (  5043 PWs)   bands (ev):

   -13.4128  -7.7863  -5.2213  -3.9774   2.2445   3.5492   4.1632   4.6517

          k = 0.3337 0.0938 0.0000 (  5043 PWs)   bands (ev):

   -13.3315  -7.7004  -5.6753  -3.6506   2.3770   3.1605   4.0518   4.7855

          k = 0.3340 0.1888 0.0000 (  5036 PWs)   bands (ev):

   -13.0972  -7.4539  -6.3854  -3.4624   2.1688   2.7665   4.3984   4.7350

          k = 0.3344 0.2838 0.0000 (  5056 PWs)   bands (ev):

   -12.7429  -7.0834  -6.9749  -3.9167   1.2253   3.3992   5.0438   5.1095

          k = 0.3306-0.7612 0.0000 (  5051 PWs)   bands (ev):

   -12.3372  -7.3344  -6.6615  -4.8072   0.4816   4.2442   5.7109   6.2861

          k = 0.3309-0.6662 0.0000 (  5056 PWs)   bands (ev):

   -11.9969  -7.4161  -6.3076  -5.7013  -0.0067   5.1312   5.4799   7.1170

          k = 0.3313-0.5712 0.0000 (  5049 PWs)   bands (ev):

   -11.8610  -7.3522  -6.1654  -6.1312  -0.1807   5.2183   5.5535   7.4867

          k = 0.3316-0.4762 0.0000 (  5056 PWs)   bands (ev):

   -11.9969  -7.4161  -6.3076  -5.7014  -0.0066   5.1313   5.4799   7.1172

          k = 0.3320-0.3812 0.0000 (  5051 PWs)   bands (ev):

   -12.3371  -7.3344  -6.6614  -4.8073   0.4817   4.2443   5.7110   6.2854

          k = 0.3323-0.2862 0.0000 (  5056 PWs)   bands (ev):

   -12.7428  -7.0833  -6.9748  -3.9170   1.2255   3.3993   5.0439   5.1088

          k = 0.4158-0.2390 0.0000 (  5035 PWs)   bands (ev):

   -12.5438  -7.3669  -6.9833  -3.8460   1.1797   3.9321   4.5436   5.6279

          k = 0.4162-0.1440 0.0000 (  5059 PWs)   bands (ev):

   -12.7526  -7.1789  -6.8013  -4.1283   1.9053   3.4501   4.9653   5.1643

          k = 0.4165-0.0490 0.0000 (  5060 PWs)   bands (ev):

   -12.8723  -7.2906  -6.1000  -4.8018   2.7221   3.1941   4.3890   5.6402

          k = 0.4168 0.0460 0.0000 (  5060 PWs)   bands (ev):

   -12.8723  -7.2906  -6.1002  -4.8016   2.7220   3.1941   4.3891   5.6402

          k = 0.4172 0.1410 0.0000 (  5059 PWs)   bands (ev):

   -12.7527  -7.1790  -6.8015  -4.1279   1.9051   3.4501   4.9653   5.1649

          k = 0.4175 0.2360 0.0000 (  5035 PWs)   bands (ev):

   -12.5440  -7.3671  -6.9834  -3.8456   1.1795   3.9320   4.5443   5.6278

          k = 0.4138-0.8090 0.0000 (  5051 PWs)   bands (ev):

   -12.3076  -7.6289  -6.7563  -4.2623   0.7457   4.5567   5.0265   6.3327

          k = 0.4141-0.7140 0.0000 (  5056 PWs)   bands (ev):

   -12.1186  -7.5049  -6.5617  -5.1528   0.6218   5.0973   5.7366   6.2648

          k = 0.4144-0.6190 0.0000 (  5053 PWs)   bands (ev):

   -12.0223  -6.9916  -6.4519  -6.1341   0.6782   4.9240   5.2057   7.2610

          k = 0.4148-0.5240 0.0000 (  5053 PWs)   bands (ev):

   -12.0223  -6.9914  -6.4519  -6.1343   0.6782   4.9239   5.2058   7.2613

          k = 0.4151-0.4290 0.0000 (  5056 PWs)   bands (ev):

   -12.1185  -7.5048  -6.5616  -5.1531   0.6219   5.0974   5.7364   6.2641

          k = 0.4155-0.3340 0.0000 (  5051 PWs)   bands (ev):

   -12.3074  -7.6288  -6.7562  -4.2626   0.7459   4.5568   5.0259   6.3328

          k =-0.4990 0.2868 0.0000 (  5038 PWs)   bands (ev):

   -12.2892  -7.7735  -6.7864  -3.9734   0.7973   4.4579   4.8396   6.2515

          k =-0.4986 0.3818 0.0000 (  5049 PWs)   bands (ev):

   -12.3133  -7.5719  -6.7983  -4.3297   0.9792   4.6147   5.0053   6.1777

          k =-0.4983 0.4768 0.0000 (  5054 PWs)   bands (ev):

   -12.3594  -7.0150  -6.8219  -5.1571   1.4294   4.3243   5.1638   6.3372

          k =-0.4979 0.5718 0.0000 (  5075 PWs)   bands (ev):

   -12.3816  -6.8335  -6.3901  -5.9021   1.7346   4.2134   4.6265   6.6779

          k =-0.4976 0.6668 0.0000 (  5054 PWs)   bands (ev):

   -12.3595  -7.0151  -6.8220  -5.1568   1.4292   4.3242   5.1640   6.3379

          k =-0.4973 0.7618 0.0000 (  5049 PWs)   bands (ev):

   -12.3134  -7.5721  -6.7984  -4.3294   0.9790   4.6145   5.0060   6.1777

          k =-0.5010-0.2832 0.0000 (  5038 PWs)   bands (ev):

   -12.2894  -7.7736  -6.7865  -3.9730   0.7971   4.4586   4.8395   6.2512

     the Fermi energy is    -1.2926 ev

!    total energy              =     -15.10428470 Ry
     estimated scf accuracy    <          4.7E-10 Ry
     smearing contrib. (-TS)   =      -0.00015535 Ry
     internal energy E=F+TS    =     -15.10412936 Ry

     The total energy is F=E-TS. E is the sum of the following terms:
     one-electron contribution =     -65.59926755 Ry
     hartree contribution      =      34.36007759 Ry
     xc contribution           =      -7.33737605 Ry
     ewald contribution        =      23.47243665 Ry

     convergence has been achieved in   7 iterations

     negative rho (up, down):  3.328E-05 0.000E+00

     Forces acting on atoms (cartesian axes, Ry/au):

     atom    1 type  1   force =    -0.00002340   -0.00489882    0.00000000
     atom    2 type  1   force =     0.00001901    0.00200421    0.00000000
     atom    3 type  2   force =     0.00000219    0.00144731   -0.00000600
     atom    4 type  2   force =     0.00000219    0.00144731    0.00000600
     The non-local contrib.  to forces
     atom    1 type  1   force =    -0.00129154   -0.36134060    0.00000000
     atom    2 type  1   force =     0.00130043    0.35605792    0.00000000
     atom    3 type  2   force =    -0.00001179   -0.00056079   -0.11268575
     atom    4 type  2   force =    -0.00001179   -0.00056079    0.11268575
     The ionic contribution  to forces
     atom    1 type  1   force =     0.00239063    0.66733279    0.00000000
     atom    2 type  1   force =    -0.00255551   -0.67809385    0.00000000
     atom    3 type  2   force =     0.00008244    0.00538053    2.56729038
     atom    4 type  2   force =     0.00008244    0.00538053   -2.56729038
     The local contribution  to forces
     atom    1 type  1   force =    -0.00115140   -0.31899259    0.00000000
     atom    2 type  1   force =     0.00130241    0.33187579    0.00000000
     atom    3 type  2   force =    -0.00006846   -0.00337171   -2.45461287
     atom    4 type  2   force =    -0.00006846   -0.00337171    2.45461287
     The core correction contribution to forces
     atom    1 type  1   force =     0.00002885    0.00810975   -0.00000000
     atom    2 type  1   force =    -0.00002829   -0.00784458   -0.00000000
     atom    3 type  2   force =     0.00000000    0.00000000    0.00000000
     atom    4 type  2   force =     0.00000000    0.00000000    0.00000000
     The Hubbard contrib.    to forces
     atom    1 type  1   force =     0.00000000    0.00000000    0.00000000
     atom    2 type  1   force =     0.00000000    0.00000000    0.00000000
     atom    3 type  2   force =     0.00000000    0.00000000    0.00000000
     atom    4 type  2   force =     0.00000000    0.00000000    0.00000000
     The SCF correction term to forces
     atom    1 type  1   force =     0.00000007   -0.00000829    0.00000000
     atom    2 type  1   force =    -0.00000002    0.00000881    0.00000000
     atom    3 type  2   force =     0.00000002   -0.00000085    0.00000223
     atom    4 type  2   force =     0.00000002   -0.00000085   -0.00000223

     Total force =     0.005675     Total SCF correction =     0.000013

     Writing all to output data dir tmpdir/pwscf.save/
 
     init_run     :     26.27s CPU     26.53s WALL (       1 calls)
     electrons    :     16.05s CPU     19.38s WALL (       1 calls)
     forces       :      0.49s CPU      0.56s WALL (       1 calls)

     Called by init_run:
     wfcinit      :      0.64s CPU      0.80s WALL (       1 calls)
     potinit      :     25.42s CPU     25.46s WALL (       1 calls)
     hinit0       :      0.16s CPU      0.20s WALL (       1 calls)

     Called by electrons:
     c_bands      :     12.31s CPU     14.75s WALL (       7 calls)
     sum_band     :      2.12s CPU      2.62s WALL (       7 calls)
     v_of_rho     :     26.71s CPU     27.09s WALL (       8 calls)
     newd         :      0.16s CPU      0.22s WALL (       8 calls)
     mix_rho      :      0.04s CPU      0.04s WALL (       7 calls)
     vdW_kernel   :     25.08s CPU     25.08s WALL (       1 calls)

     Called by c_bands:
     init_us_2    :      0.22s CPU      0.26s WALL (    1184 calls)
     init_us_2:cp :      0.22s CPU      0.26s WALL (    1184 calls)
     cegterg      :     11.82s CPU     14.20s WALL (     518 calls)

     Called by *egterg:
     cdiaghg      :      0.36s CPU      0.43s WALL (    2407 calls)
     h_psi        :     10.49s CPU     12.64s WALL (    2481 calls)
     s_psi        :      0.16s CPU      0.20s WALL (    2481 calls)
     g_psi        :      0.04s CPU      0.05s WALL (    1889 calls)

     Called by h_psi:
     h_psi:calbec :      0.39s CPU      0.48s WALL (    2481 calls)
     vloc_psi     :      9.80s CPU     11.79s WALL (    2481 calls)
     add_vuspsi   :      0.25s CPU      0.31s WALL (    2481 calls)

     General routines
     calbec       :      0.53s CPU      0.65s WALL (    3295 calls)
     fft          :      0.88s CPU      1.18s WALL (     563 calls)
     ffts         :      0.01s CPU      0.01s WALL (      15 calls)
     fftw         :      9.66s CPU     11.73s WALL (   29974 calls)
     interpolate  :      0.01s CPU      0.02s WALL (       8 calls)
 
     Parallel routines
 
     PWSCF        :     42.91s CPU     46.67s WALL

 
   This run was terminated on:  10:21:11   1Dec2023            

=------------------------------------------------------------------------------=
   JOB DONE.
=------------------------------------------------------------------------------=
