[0] MPI startup(): I_MPI_TCP_NETMASK variable has been removed from the product, its value is ignored


     Program PWSCF v.7.2 starts on 12Mar2024 at 18:25:54 

     This program is part of the open-source Quantum ESPRESSO suite
     for quantum simulation of materials; please cite
         "P. Giannozzi et al., J. Phys.:Condens. Matter 21 395502 (2009);
         "P. Giannozzi et al., J. Phys.:Condens. Matter 29 465901 (2017);
         "P. Giannozzi et al., J. Chem. Phys. 152 154105 (2020);
          URL http://www.quantum-espresso.org", 
     in publications or presentations arising from this work. More details at
     http://www.quantum-espresso.org/quote

     Parallel version (MPI), running on    16 processors

     MPI processes distributed on     1 nodes
     37802 MiB available memory on the printing compute node when the environment starts
 
     Reading input from espresso.pwi
Warning: card &CELL ignored
Warning: card / ignored

     Current dimensions of program PWSCF are:
     Max number of different atomic species (ntypx) = 10
     Max number of k-points (npk) =  40000
     Max angular momentum in pseudopotentials (lmaxx) =  4
     Presently no symmetry can be used with electric field


     IMPORTANT: XC functional enforced from input :
     Exchange-correlation= VDW-DF2-B86R
                           (   1   4  26   0   2   0   0)
     Any further DFT definition will be discarded
     Please, verify this is what you really want

 
     R & G space division:  proc/nbgrp/npool/nimage =      16
     Subspace diagonalization in iterative solution of the eigenvalue problem:
     a serial algorithm will be used

 
     Parallelization info
     --------------------
     sticks:   dense  smooth     PW     G-vecs:    dense   smooth      PW
     Min          67      34     10                 7115     2515     444
     Max          68      36     11                 7126     2519     463
     Sum        1085     551    167               113933    40273    7201
 
     Using Slab Decomposition
 


     bravais-lattice index     =            0
     lattice parameter (alat)  =       5.6973  a.u.
     unit-cell volume          =     642.1518 (a.u.)^3
     number of atoms/cell      =            4
     number of atomic types    =            2
     number of electrons       =         8.00
     number of Kohn-Sham states=            8
     kinetic-energy cutoff     =      60.0000  Ry
     charge density cutoff     =     480.0000  Ry
     scf convergence threshold =      1.0E-06
     mixing beta               =       0.7000
     number of iterations used =            8  plain     mixing
     Exchange-correlation= VDW-DF2-B86R
                           (   1   4  26   0   2   0   0)

     celldm(1)=   5.697334  celldm(2)=   0.000000  celldm(3)=   0.000000
     celldm(4)=   0.000000  celldm(5)=   0.000000  celldm(6)=   0.000000

     crystal axes: (cart. coord. in units of alat)
               a(1) = (   0.999994  -0.003591   0.000000 )  
               a(2) = (   0.503167   0.875437   0.000000 )  
               a(3) = (   0.000000   0.000000   3.958265 )  

     reciprocal axes: (cart. coord. in units 2 pi/alat)
               b(1) = (  0.997946 -0.573581  0.000000 )  
               b(2) = (  0.004094  1.139933  0.000000 )  
               b(3) = (  0.000000  0.000000  0.252636 )  


     PseudoPot. # 1 for B  read from file:
     /home/krojas/QE/pseudo/b_pbe_v1.4.uspp.F.UPF
     MD5 check sum: cc6de2960df11db49a60e589f9ebb39b
     Pseudo is Ultrasoft + core correction, Zval =  3.0
     Generated by new atomic code, or converted to UPF format
     Using radial grid of  781 points,  4 beta functions with: 
                l(1) =   0
                l(2) =   0
                l(3) =   1
                l(4) =   1
     Q(r) pseudized with  8 coefficients,  rinner =    1.100   1.100   1.100


     PseudoPot. # 2 for H  read from file:
     /home/krojas/QE/pseudo/h_pbe_v1.4.uspp.F.UPF
     MD5 check sum: 761ae9a214b05c3daf00ab9f6b793d6f
     Pseudo is Ultrasoft, Zval =  1.0
     Generated by new atomic code, or converted to UPF format
     Using radial grid of  615 points,  2 beta functions with: 
                l(1) =   0
                l(2) =   0
     Q(r) pseudized with  8 coefficients,  rinner =    0.700

     atomic species   valence    mass     pseudopotential
        B              3.00    10.81000     B ( 1.00)
        H              1.00     1.00800     H ( 1.00)

     No symmetry found



   Cartesian axes

     site n.     atom                  positions (alat units)
         1           B   tau(   1) = (   0.0000000   0.0000000   1.9791325  )
         2           B   tau(   2) = (   0.5009657   0.2715580   1.9791325  )
         3           H   tau(   3) = (   0.5020846   0.5768272   2.2998349  )
         4           H   tau(   4) = (   0.5020846   0.5735104   1.6584302  )

     number of k points=    74  Gaussian smearing, width (Ry)=  0.0100
                       cart. coord. in units 2pi/alat
        k(    1) = (   0.0000000   0.0000000   0.0000000), wk =   0.0138889
        k(    2) = (   0.0003412   0.0949944   0.0000000), wk =   0.0277778
        k(    3) = (   0.0006823   0.1899889   0.0000000), wk =   0.0277778
        k(    4) = (   0.0010235   0.2849833   0.0000000), wk =   0.0277778
        k(    5) = (   0.0013646   0.3799777   0.0000000), wk =   0.0277778
        k(    6) = (   0.0017058   0.4749722   0.0000000), wk =   0.0277778
        k(    7) = (  -0.0020470  -0.5699666   0.0000000), wk =   0.0138889
        k(    8) = (   0.0831622  -0.0477984   0.0000000), wk =   0.0277778
        k(    9) = (   0.0835034   0.0471960   0.0000000), wk =   0.0277778
        k(   10) = (   0.0838445   0.1421905   0.0000000), wk =   0.0277778
        k(   11) = (   0.0841857   0.2371849   0.0000000), wk =   0.0277778
        k(   12) = (   0.0845269   0.3321793   0.0000000), wk =   0.0277778
        k(   13) = (   0.0848680   0.4271738   0.0000000), wk =   0.0277778
        k(   14) = (   0.0811152  -0.6177650   0.0000000), wk =   0.0277778
        k(   15) = (   0.0814564  -0.5227706   0.0000000), wk =   0.0277778
        k(   16) = (   0.0817976  -0.4277762   0.0000000), wk =   0.0277778
        k(   17) = (   0.0821387  -0.3327817   0.0000000), wk =   0.0277778
        k(   18) = (   0.0824799  -0.2377873   0.0000000), wk =   0.0277778
        k(   19) = (   0.0828210  -0.1427928   0.0000000), wk =   0.0277778
        k(   20) = (   0.1663244  -0.0955968   0.0000000), wk =   0.0277778
        k(   21) = (   0.1666656  -0.0006024   0.0000000), wk =   0.0277778
        k(   22) = (   0.1670067   0.0943921   0.0000000), wk =   0.0277778
        k(   23) = (   0.1673479   0.1893865   0.0000000), wk =   0.0277778
        k(   24) = (   0.1676891   0.2843809   0.0000000), wk =   0.0277778
        k(   25) = (   0.1680302   0.3793754   0.0000000), wk =   0.0277778
        k(   26) = (   0.1642774  -0.6655634   0.0000000), wk =   0.0277778
        k(   27) = (   0.1646186  -0.5705690   0.0000000), wk =   0.0277778
        k(   28) = (   0.1649598  -0.4755746   0.0000000), wk =   0.0277778
        k(   29) = (   0.1653009  -0.3805801   0.0000000), wk =   0.0277778
        k(   30) = (   0.1656421  -0.2855857   0.0000000), wk =   0.0277778
        k(   31) = (   0.1659833  -0.1905913   0.0000000), wk =   0.0277778
        k(   32) = (   0.2494866  -0.1433952   0.0000000), wk =   0.0277778
        k(   33) = (   0.2498278  -0.0484008   0.0000000), wk =   0.0277778
        k(   34) = (   0.2501689   0.0465936   0.0000000), wk =   0.0277778
        k(   35) = (   0.2505101   0.1415881   0.0000000), wk =   0.0277778
        k(   36) = (   0.2508513   0.2365825   0.0000000), wk =   0.0277778
        k(   37) = (   0.2511924   0.3315769   0.0000000), wk =   0.0277778
        k(   38) = (   0.2474397  -0.7133618   0.0000000), wk =   0.0277778
        k(   39) = (   0.2477808  -0.6183674   0.0000000), wk =   0.0277778
        k(   40) = (   0.2481220  -0.5233730   0.0000000), wk =   0.0277778
        k(   41) = (   0.2484631  -0.4283785   0.0000000), wk =   0.0277778
        k(   42) = (   0.2488043  -0.3333841   0.0000000), wk =   0.0277778
        k(   43) = (   0.2491455  -0.2383897   0.0000000), wk =   0.0277778
        k(   44) = (   0.3326488  -0.1911936   0.0000000), wk =   0.0277778
        k(   45) = (   0.3329900  -0.0961992   0.0000000), wk =   0.0277778
        k(   46) = (   0.3333312  -0.0012048   0.0000000), wk =   0.0277778
        k(   47) = (   0.3336723   0.0937897   0.0000000), wk =   0.0277778
        k(   48) = (   0.3340135   0.1887841   0.0000000), wk =   0.0277778
        k(   49) = (   0.3343546   0.2837785   0.0000000), wk =   0.0277778
        k(   50) = (   0.3306019  -0.7611603   0.0000000), wk =   0.0277778
        k(   51) = (   0.3309430  -0.6661658   0.0000000), wk =   0.0277778
        k(   52) = (   0.3312842  -0.5711714   0.0000000), wk =   0.0277778
        k(   53) = (   0.3316253  -0.4761769   0.0000000), wk =   0.0277778
        k(   54) = (   0.3319665  -0.3811825   0.0000000), wk =   0.0277778
        k(   55) = (   0.3323077  -0.2861881   0.0000000), wk =   0.0277778
        k(   56) = (   0.4158110  -0.2389921   0.0000000), wk =   0.0277778
        k(   57) = (   0.4161522  -0.1439976   0.0000000), wk =   0.0277778
        k(   58) = (   0.4164934  -0.0490032   0.0000000), wk =   0.0277778
        k(   59) = (   0.4168345   0.0459913   0.0000000), wk =   0.0277778
        k(   60) = (   0.4171757   0.1409857   0.0000000), wk =   0.0277778
        k(   61) = (   0.4175169   0.2359801   0.0000000), wk =   0.0277778
        k(   62) = (   0.4137641  -0.8089587   0.0000000), wk =   0.0277778
        k(   63) = (   0.4141052  -0.7139642   0.0000000), wk =   0.0277778
        k(   64) = (   0.4144464  -0.6189698   0.0000000), wk =   0.0277778
        k(   65) = (   0.4147876  -0.5239754   0.0000000), wk =   0.0277778
        k(   66) = (   0.4151287  -0.4289809   0.0000000), wk =   0.0277778
        k(   67) = (   0.4154699  -0.3339865   0.0000000), wk =   0.0277778
        k(   68) = (  -0.4989732   0.2867905   0.0000000), wk =   0.0138889
        k(   69) = (  -0.4986321   0.3817849   0.0000000), wk =   0.0277778
        k(   70) = (  -0.4982909   0.4767793   0.0000000), wk =   0.0277778
        k(   71) = (  -0.4979498   0.5717738   0.0000000), wk =   0.0277778
        k(   72) = (  -0.4976086   0.6667682   0.0000000), wk =   0.0277778
        k(   73) = (  -0.4972674   0.7617626   0.0000000), wk =   0.0277778
        k(   74) = (  -0.5010202  -0.2831762   0.0000000), wk =   0.0138889

     Dense  grid:   113933 G-vectors     FFT dimensions: (  40,  45, 160)

     Smooth grid:    40273 G-vectors     FFT dimensions: (  30,  30, 120)

     Estimated max dynamical RAM per process >      13.53 MB

     Estimated total dynamical RAM >     216.40 MB

     Initial potential from superposition of free atoms

     starting charge       7.9994, renormalised to       8.0000

     negative rho (up, down):  1.266E-05 0.000E+00


     %%%%%%%%%%%%%%%%%%%%%%%%%%%%%%%%%%%%%%%%%%%%%%%%%%%%%%%%%%%%%%%%%%%%%%%%
     %                                                                      %
     % You are using vdW-DF, which was implemented by the Thonhauser group. %
     % Please cite the following two papers that made this development      %
     % possible and the two reviews that describe the various versions:     %
     %                                                                      %
     %   T. Thonhauser et al., PRL 115, 136402 (2015).                      %
     %   T. Thonhauser et al., PRB 76, 125112 (2007).                       %
     %   K. Berland et al., Rep. Prog. Phys. 78, 066501 (2015).             %
     %   D.C. Langreth et al., J. Phys.: Condens. Matter 21, 084203 (2009). %
     %                                                                      %
     % If you are calculating stress with vdW-DF, please also cite:         %
     %                                                                      %
     %   R. Sabatini et al., J. Phys.: Condens. Matter 24, 424209 (2012).   %
     %                                                                      %
     %%%%%%%%%%%%%%%%%%%%%%%%%%%%%%%%%%%%%%%%%%%%%%%%%%%%%%%%%%%%%%%%%%%%%%%%

     %%%%%%%%%%%%%%%%%%%%%%%%%%%%%%%%%%%%%%%%%%%%%%%%%%%%%%%%%%%%%%%%%%%%%%%%
     %                                                                      %
     %  vdW-DF NEWS:                                                        %
     %                                                                      %
     %  * vdW-DF3 is now available. DOI: 10.1021/acs.jctc.0c00471           %
     %    use with input_dft = 'vdW-DF3-opt1' or 'vdW-DF3-opt2'             %
     %                                                                      %
     %  * Unscreened and range-separated hybrid vdW-DF-cx functionals       %
     %    DOI: 10.1063/1.4986522 and 10.1088/1361-648X/ac2ad2               %
     %    use with input_dft = 'vdW-DF-cx0'    and 'vdW-DF-ahcx'            %
     %  * Unscreened and range-separated hybrid vdW-DF2-b86r functionals    %
     %    DOI: 10.1063/1.4986522 and DOI: 10.1103/PhysRevX.12.041003        %
     %    use with input_dft = 'vdW-DF2-br0' and 'vdW-DF2-ahbr'             %
     %                                                                      %
     %%%%%%%%%%%%%%%%%%%%%%%%%%%%%%%%%%%%%%%%%%%%%%%%%%%%%%%%%%%%%%%%%%%%%%%%


 
     Adding external electric field

     Computed dipole along edir(3) : 
        Dipole               -0.0000 Ry au,         -0.0000 Debye
        Dipole field         -0.0000 Ry au, 
 
        Potential amp.        0.0000 Ry
        Total length         22.5493 bohr
 
     Starting wfcs are   10 randomized atomic wfcs

     total cpu time spent up to now is       14.2 secs

     Self-consistent Calculation

     iteration #  1     ecut=    60.00 Ry     beta= 0.70
     Davidson diagonalization with overlap
     ethr =  1.00E-02,  avg # of iterations =  3.8

     negative rho (up, down):  1.269E-05 0.000E+00
 
     Adding external electric field

     Computed dipole along edir(3) : 
        Dipole               -0.0002 Ry au,         -0.0004 Debye
        Dipole field         -0.0000 Ry au, 
 
        Potential amp.        0.0002 Ry
        Total length         22.5493 bohr
 

     total cpu time spent up to now is       14.9 secs

     total energy              =     -15.04545711 Ry
     estimated scf accuracy    <       0.32932523 Ry

     iteration #  2     ecut=    60.00 Ry     beta= 0.70
     Davidson diagonalization with overlap
     ethr =  4.12E-03,  avg # of iterations =  3.8

     negative rho (up, down):  2.183E-05 0.000E+00
 
     Adding external electric field

     Computed dipole along edir(3) : 
        Dipole                0.0002 Ry au,          0.0004 Debye
        Dipole field          0.0000 Ry au, 
 
        Potential amp.       -0.0002 Ry
        Total length         22.5493 bohr
 

     total cpu time spent up to now is       15.6 secs

     total energy              =     -15.10079882 Ry
     estimated scf accuracy    <       0.01903238 Ry

     iteration #  3     ecut=    60.00 Ry     beta= 0.70
     Davidson diagonalization with overlap
     ethr =  2.38E-04,  avg # of iterations =  5.2

     negative rho (up, down):  3.100E-05 0.000E+00
 
     Adding external electric field

     Computed dipole along edir(3) : 
        Dipole               -0.0005 Ry au,         -0.0013 Debye
        Dipole field         -0.0000 Ry au, 
 
        Potential amp.        0.0005 Ry
        Total length         22.5493 bohr
 

     total cpu time spent up to now is       16.4 secs

     total energy              =     -15.10416209 Ry
     estimated scf accuracy    <       0.00059276 Ry

     iteration #  4     ecut=    60.00 Ry     beta= 0.70
     Davidson diagonalization with overlap
     ethr =  7.41E-06,  avg # of iterations =  5.7

     negative rho (up, down):  3.282E-05 0.000E+00
 
     Adding external electric field

     Computed dipole along edir(3) : 
        Dipole                0.0013 Ry au,          0.0033 Debye
        Dipole field          0.0000 Ry au, 
 
        Potential amp.       -0.0011 Ry
        Total length         22.5493 bohr
 

     total cpu time spent up to now is       17.2 secs

     total energy              =     -15.10425517 Ry
     estimated scf accuracy    <       0.00000776 Ry

     iteration #  5     ecut=    60.00 Ry     beta= 0.70
     Davidson diagonalization with overlap
     ethr =  9.70E-08,  avg # of iterations =  2.6

     negative rho (up, down):  3.319E-05 0.000E+00
 
     Adding external electric field

     Computed dipole along edir(3) : 
        Dipole               -0.0009 Ry au,         -0.0023 Debye
        Dipole field         -0.0000 Ry au, 
 
        Potential amp.        0.0008 Ry
        Total length         22.5493 bohr
 

     total cpu time spent up to now is       17.8 secs

     total energy              =     -15.10425736 Ry
     estimated scf accuracy    <       0.00000302 Ry

     iteration #  6     ecut=    60.00 Ry     beta= 0.70
     Davidson diagonalization with overlap
     ethr =  3.77E-08,  avg # of iterations =  1.9

     negative rho (up, down):  3.338E-05 0.000E+00
 
     Adding external electric field

     Computed dipole along edir(3) : 
        Dipole                0.0000 Ry au,          0.0001 Debye
        Dipole field          0.0000 Ry au, 
 
        Potential amp.       -0.0000 Ry
        Total length         22.5493 bohr
 

     total cpu time spent up to now is       18.4 secs

     total energy              =     -15.10425812 Ry
     estimated scf accuracy    <       0.00000136 Ry

     iteration #  7     ecut=    60.00 Ry     beta= 0.70
     Davidson diagonalization with overlap
     ethr =  1.70E-08,  avg # of iterations =  1.7

     negative rho (up, down):  3.347E-05 0.000E+00
 
     Adding external electric field

     Computed dipole along edir(3) : 
        Dipole               -0.0001 Ry au,         -0.0002 Debye
        Dipole field         -0.0000 Ry au, 
 
        Potential amp.        0.0001 Ry
        Total length         22.5493 bohr
 

     total cpu time spent up to now is       18.9 secs

     End of self-consistent calculation

          k = 0.0000 0.0000 0.0000 (  5017 PWs)   bands (ev):

   -14.5317  -8.8546  -3.0963  -0.6483   0.5636   1.9354   2.9058   5.5960

          k = 0.0003 0.0950 0.0000 (  4979 PWs)   bands (ev):

   -14.4330  -8.7369  -3.4831  -0.8947   0.6863   2.0764   3.0336   5.7025

          k = 0.0007 0.1900 0.0000 (  4988 PWs)   bands (ev):

   -14.1420  -8.3892  -4.4715  -1.4605   1.0702   2.4814   3.4240   3.9681

          k = 0.0010 0.2850 0.0000 (  5020 PWs)   bands (ev):

   -13.6768  -7.8312  -5.7387  -2.0759   1.7171   1.9065   3.3000   4.0500

          k = 0.0014 0.3800 0.0000 (  5038 PWs)   bands (ev):

   -13.0836  -7.1187  -7.0129  -2.5821   0.1867   2.5849   4.2670   4.6379

          k = 0.0017 0.4750 0.0000 (  5038 PWs)   bands (ev):

   -12.4870  -8.0636  -6.3817  -2.9062  -1.1724   3.4615   4.9194   5.5257

          k =-0.0020-0.5700 0.0000 (  5036 PWs)   bands (ev):

   -12.1968  -8.5089  -6.0189  -3.0171  -1.7470   3.7912   5.6274   6.1142

          k = 0.0832-0.0478 0.0000 (  5007 PWs)   bands (ev):

   -14.4332  -8.7539  -3.3736  -1.0351   0.6994   2.0764   3.0475   5.6651

          k = 0.0835 0.0472 0.0000 (  5007 PWs)   bands (ev):

   -14.4332  -8.7539  -3.3737  -1.0350   0.6994   2.0764   3.0475   5.6656

          k = 0.0838 0.1422 0.0000 (  5003 PWs)   bands (ev):

   -14.2386  -8.5228  -4.0645  -1.4389   0.9527   2.3512   3.3083   4.8503

          k = 0.0842 0.2372 0.0000 (  5010 PWs)   bands (ev):

   -13.8604  -8.0728  -5.1619  -2.0770   1.4738   2.6227   3.2034   3.8347

          k = 0.0845 0.3322 0.0000 (  5029 PWs)   bands (ev):

   -13.3285  -7.4374  -6.3976  -2.6972   1.0239   2.2493   3.8469   4.5685

          k = 0.0849 0.4272 0.0000 (  5030 PWs)   bands (ev):

   -12.7191  -7.5474  -6.7019  -3.1536  -0.5024   3.2044   4.9568   5.1301

          k = 0.0811-0.6178 0.0000 (  5055 PWs)   bands (ev):

   -12.2354  -8.3197  -6.1114  -3.3906  -1.4992   3.9992   5.5591   6.2860

          k = 0.0815-0.5228 0.0000 (  5055 PWs)   bands (ev):

   -12.2354  -8.3197  -6.1114  -3.3906  -1.4991   3.9992   5.5592   6.2857

          k = 0.0818-0.4278 0.0000 (  5030 PWs)   bands (ev):

   -12.7191  -7.5475  -6.7019  -3.1536  -0.5024   3.2044   4.9569   5.1300

          k = 0.0821-0.3328 0.0000 (  5029 PWs)   bands (ev):

   -13.3285  -7.4374  -6.3976  -2.6972   1.0240   2.2494   3.8469   4.5684

          k = 0.0825-0.2378 0.0000 (  5010 PWs)   bands (ev):

   -13.8604  -8.0728  -5.1618  -2.0771   1.4738   2.6228   3.2034   3.8347

          k = 0.0828-0.1428 0.0000 (  5003 PWs)   bands (ev):

   -14.2386  -8.5228  -4.0644  -1.4391   0.9527   2.3513   3.3083   4.8504

          k = 0.1663-0.0956 0.0000 (  5007 PWs)   bands (ev):

   -14.1440  -8.4617  -4.1287  -1.9014   1.1131   2.4879   3.4758   5.3152

          k = 0.1667-0.0006 0.0000 (  4991 PWs)   bands (ev):

   -14.2395  -8.5731  -3.7735  -1.8091   0.9845   2.3566   3.3440   5.9834

          k = 0.1670 0.0944 0.0000 (  5007 PWs)   bands (ev):

   -14.1440  -8.4617  -4.1289  -1.9010   1.1131   2.4879   3.4757   5.3149

          k = 0.1673 0.1894 0.0000 (  5031 PWs)   bands (ev):

   -13.8634  -8.1342  -4.9442  -2.3552   1.5035   2.7905   3.7086   3.8747

          k = 0.1677 0.2844 0.0000 (  5037 PWs)   bands (ev):

   -13.4182  -7.6143  -5.9405  -3.0815   1.7782   2.1607   3.7399   4.5426

          k = 0.1680 0.3794 0.0000 (  5046 PWs)   bands (ev):

   -12.8592  -6.9869  -6.9433  -3.7539   0.2982   3.0569   4.6643   5.4163

          k = 0.1643-0.6656 0.0000 (  5071 PWs)   bands (ev):

   -12.3132  -7.8382  -6.3207  -4.1894  -0.8646   4.0827   5.7927   6.1235

          k = 0.1646-0.5706 0.0000 (  5067 PWs)   bands (ev):

   -12.0573  -8.2090  -6.0209  -4.3370  -1.3423   4.6967   6.5086   6.8305

          k = 0.1650-0.4756 0.0000 (  5071 PWs)   bands (ev):

   -12.3131  -7.8382  -6.3207  -4.1895  -0.8645   4.0827   5.7928   6.1237

          k = 0.1653-0.3806 0.0000 (  5048 PWs)   bands (ev):

   -12.8592  -6.9869  -6.9432  -3.7540   0.2983   3.0569   4.6644   5.4163

          k = 0.1656-0.2856 0.0000 (  5037 PWs)   bands (ev):

   -13.4181  -7.6143  -5.9403  -3.0818   1.7784   2.1608   3.7400   4.5426

          k = 0.1660-0.1906 0.0000 (  5031 PWs)   bands (ev):

   -13.8633  -8.1341  -4.9439  -2.3556   1.5035   2.7906   3.7088   3.8749

          k = 0.2495-0.1434 0.0000 (  5031 PWs)   bands (ev):

   -13.6870  -8.0130  -5.2028  -2.7770   1.8065   2.9976   3.9856   4.1873

          k = 0.2498-0.0484 0.0000 (  5026 PWs)   bands (ev):

   -13.8661  -8.2148  -4.5800  -2.8089   1.5443   2.8949   3.9236   5.1356

          k = 0.2502 0.0466 0.0000 (  5026 PWs)   bands (ev):

   -13.8661  -8.2148  -4.5803  -2.8086   1.5443   2.8949   3.9236   5.1353

          k = 0.2505 0.1416 0.0000 (  5031 PWs)   bands (ev):

   -13.6870  -8.0130  -5.2032  -2.7765   1.8064   2.9975   3.9853   4.1873

          k = 0.2509 0.2366 0.0000 (  5038 PWs)   bands (ev):

   -13.3438  -7.6273  -5.9688  -3.2441   2.1807   2.3298   3.9574   4.7084

          k = 0.2512 0.3316 0.0000 (  5053 PWs)   bands (ev):

   -12.8749  -7.1030  -6.7010  -4.0698   0.9592   3.1062   4.6920   5.5129

          k = 0.2474-0.7134 0.0000 (  5056 PWs)   bands (ev):

   -12.3666  -7.3442  -6.5366  -4.8382  -0.0941   4.0833   5.5546   6.4676

          k = 0.2478-0.6184 0.0000 (  5062 PWs)   bands (ev):

   -11.9972  -7.7730  -6.1299  -5.2720  -0.7491   5.0253   5.9138   6.9662

          k = 0.2481-0.5234 0.0000 (  5062 PWs)   bands (ev):

   -11.9971  -7.7730  -6.1299  -5.2721  -0.7491   5.0253   5.9138   6.9664

          k = 0.2485-0.4284 0.0000 (  5056 PWs)   bands (ev):

   -12.3665  -7.3441  -6.5365  -4.8384  -0.0939   4.0834   5.5546   6.4678

          k = 0.2488-0.3334 0.0000 (  5053 PWs)   bands (ev):

   -12.8748  -7.1030  -6.7008  -4.0701   0.9595   3.1063   4.6921   5.5129

          k = 0.2491-0.2384 0.0000 (  5038 PWs)   bands (ev):

   -13.3437  -7.6272  -5.9685  -3.2446   2.1810   2.3299   3.9575   4.7084

          k = 0.3326-0.1912 0.0000 (  5036 PWs)   bands (ev):

   -13.1178  -7.4839  -6.3729  -3.4307   2.1851   2.7649   4.4000   4.7601

          k = 0.3330-0.0962 0.0000 (  5043 PWs)   bands (ev):

   -13.3496  -7.7283  -5.6733  -3.6098   2.3749   3.1675   4.0601   4.7819

          k = 0.3333-0.0012 0.0000 (  5043 PWs)   bands (ev):

   -13.4302  -7.8136  -5.2346  -3.9217   2.2426   3.5418   4.1843   4.6482

          k = 0.3337 0.0938 0.0000 (  5043 PWs)   bands (ev):

   -13.3497  -7.7284  -5.6738  -3.6092   2.3749   3.1672   4.0599   4.7821

          k = 0.3340 0.1888 0.0000 (  5036 PWs)   bands (ev):

   -13.1179  -7.4839  -6.3734  -3.4300   2.1846   2.7648   4.3999   4.7609

          k = 0.3344 0.2838 0.0000 (  5056 PWs)   bands (ev):

   -12.7681  -7.1181  -6.9549  -3.8875   1.2461   3.3984   5.0451   5.1373

          k = 0.3306-0.7612 0.0000 (  5051 PWs)   bands (ev):

   -12.3689  -7.3095  -6.6993  -4.7781   0.5076   4.2433   5.7194   6.3181

          k = 0.3309-0.6662 0.0000 (  5056 PWs)   bands (ev):

   -12.0354  -7.3843  -6.3505  -5.6719   0.0244   5.1272   5.4990   7.1201

          k = 0.3313-0.5712 0.0000 (  5049 PWs)   bands (ev):

   -11.9026  -7.3164  -6.2105  -6.1028  -0.1472   5.2380   5.5460   7.5032

          k = 0.3316-0.4762 0.0000 (  5056 PWs)   bands (ev):

   -12.0353  -7.3841  -6.3505  -5.6723   0.0246   5.1274   5.4989   7.1199

          k = 0.3320-0.3812 0.0000 (  5051 PWs)   bands (ev):

   -12.3688  -7.3092  -6.6992  -4.7786   0.5079   4.2435   5.7194   6.3171

          k = 0.3323-0.2862 0.0000 (  5056 PWs)   bands (ev):

   -12.7680  -7.1181  -6.9545  -3.8881   1.2465   3.3986   5.0452   5.1364

          k = 0.4158-0.2390 0.0000 (  5035 PWs)   bands (ev):

   -12.5713  -7.3431  -7.0179  -3.8212   1.2049   3.9299   4.5675   5.6263

          k = 0.4162-0.1440 0.0000 (  5059 PWs)   bands (ev):

   -12.7767  -7.2122  -6.7833  -4.0994   1.9285   3.4481   4.9619   5.1903

          k = 0.4165-0.0490 0.0000 (  5060 PWs)   bands (ev):

   -12.8946  -7.3224  -6.0955  -4.7608   2.7464   3.1928   4.3832   5.6362

          k = 0.4168 0.0460 0.0000 (  5060 PWs)   bands (ev):

   -12.8947  -7.3224  -6.0959  -4.7604   2.7461   3.1928   4.3833   5.6361

          k = 0.4172 0.1410 0.0000 (  5059 PWs)   bands (ev):

   -12.7768  -7.2122  -6.7837  -4.0987   1.9280   3.4480   4.9619   5.1912

          k = 0.4175 0.2360 0.0000 (  5035 PWs)   bands (ev):

   -12.5714  -7.3434  -7.0179  -3.8205   1.2044   3.9298   4.5683   5.6262

          k = 0.4138-0.8090 0.0000 (  5051 PWs)   bands (ev):

   -12.3391  -7.6002  -6.7937  -4.2380   0.7732   4.5588   5.0455   6.3374

          k = 0.4141-0.7140 0.0000 (  5056 PWs)   bands (ev):

   -12.1535  -7.4736  -6.6015  -5.1275   0.6517   5.0947   5.7508   6.2900

          k = 0.4144-0.6190 0.0000 (  5053 PWs)   bands (ev):

   -12.0586  -6.9596  -6.4931  -6.1076   0.7098   4.9383   5.2022   7.2583

          k = 0.4148-0.5240 0.0000 (  5053 PWs)   bands (ev):

   -12.0586  -6.9592  -6.4931  -6.1081   0.7100   4.9381   5.2022   7.2586

          k = 0.4151-0.4290 0.0000 (  5056 PWs)   bands (ev):

   -12.1534  -7.4732  -6.6015  -5.1280   0.6521   5.0949   5.7505   6.2891

          k = 0.4155-0.3340 0.0000 (  5051 PWs)   bands (ev):

   -12.3390  -7.5999  -6.7937  -4.2386   0.7737   4.5589   5.0447   6.3374

          k =-0.4990 0.2868 0.0000 (  5038 PWs)   bands (ev):

   -12.3210  -7.7434  -6.8239  -3.9507   0.8260   4.4817   4.8339   6.2541

          k =-0.4986 0.3818 0.0000 (  5049 PWs)   bands (ev):

   -12.3443  -7.5435  -6.8355  -4.3058   1.0077   4.6119   5.0292   6.1746

          k =-0.4983 0.4768 0.0000 (  5054 PWs)   bands (ev):

   -12.3890  -6.9923  -6.8578  -5.1291   1.4581   4.3226   5.1652   6.3686

          k =-0.4979 0.5718 0.0000 (  5075 PWs)   bands (ev):

   -12.4105  -6.8704  -6.3828  -5.8580   1.7642   4.2121   4.6293   6.6825

          k =-0.4976 0.6668 0.0000 (  5054 PWs)   bands (ev):

   -12.3890  -6.9927  -6.8578  -5.1286   1.4577   4.3225   5.1654   6.3694

          k =-0.4973 0.7618 0.0000 (  5049 PWs)   bands (ev):

   -12.3444  -7.5439  -6.8355  -4.3052   1.0072   4.6118   5.0300   6.1747

          k =-0.5010-0.2832 0.0000 (  5038 PWs)   bands (ev):

   -12.3211  -7.7438  -6.8239  -3.9500   0.8255   4.4825   4.8337   6.2537

     the Fermi energy is    -1.2492 ev

!    total energy              =     -15.10425835 Ry
     estimated scf accuracy    <          8.6E-09 Ry
     smearing contrib. (-TS)   =      -0.00015413 Ry
     internal energy E=F+TS    =     -15.10410422 Ry

     The total energy is F=E-TS. E is the sum of the following terms:
     one-electron contribution =     -65.62276508 Ry
     hartree contribution      =      34.37219146 Ry
     xc contribution           =      -7.33894162 Ry
     ewald contribution        =      23.48541102 Ry
     electric field correction =       0.00000000 Ry

     convergence has been achieved in   7 iterations

     negative rho (up, down):  3.347E-05 0.000E+00

     Forces acting on atoms (cartesian axes, Ry/au):

     atom    1 type  1   force =    -0.00001579    0.00560132   -0.00106488
     atom    2 type  1   force =     0.00002931   -0.00259959    0.00096292
     atom    3 type  2   force =    -0.00001307   -0.00363205    0.00116048
     atom    4 type  2   force =    -0.00000045    0.00063032   -0.00105852
     The non-local contrib.  to forces
     atom    1 type  1   force =    -0.00129763   -0.34930517   -0.00272216
     atom    2 type  1   force =     0.00133078    0.35470977    0.00262927
     atom    3 type  2   force =     0.00000198    0.00104808   -0.11399731
     atom    4 type  2   force =    -0.00000729    0.00007979    0.11397905
     The ionic contribution  to forces
     atom    1 type  1   force =     0.00247021    0.70071787   -0.00946516
     atom    2 type  1   force =    -0.00249436   -0.68985488    0.00928652
     atom    3 type  2   force =    -0.00002357   -0.01048307    2.57675263
     atom    4 type  2   force =     0.00004772   -0.00037992   -2.57657398
     The local contribution  to forces
     atom    1 type  1   force =    -0.00121631   -0.35337235    0.01099515
     atom    2 type  1   force =     0.00122227    0.34037508   -0.01074566
     atom    3 type  2   force =     0.00000879    0.00580539   -2.46158801
     atom    4 type  2   force =    -0.00004079    0.00093272    2.46153591
     The core correction contribution to forces
     atom    1 type  1   force =     0.00002841    0.00753631    0.00016849
     atom    2 type  1   force =    -0.00002953   -0.00780623   -0.00016631
     atom    3 type  2   force =     0.00000000    0.00000000    0.00000000
     atom    4 type  2   force =     0.00000000    0.00000000    0.00000000
     The Hubbard contrib.    to forces
     atom    1 type  1   force =     0.00000000    0.00000000    0.00000000
     atom    2 type  1   force =     0.00000000    0.00000000    0.00000000
     atom    3 type  2   force =     0.00000000    0.00000000    0.00000000
     atom    4 type  2   force =     0.00000000    0.00000000    0.00000000
     The SCF correction term to forces
     atom    1 type  1   force =    -0.00000038    0.00002488   -0.00005795
     atom    2 type  1   force =     0.00000024   -0.00002309   -0.00005765
     atom    3 type  2   force =    -0.00000017   -0.00000223   -0.00001687
     atom    4 type  2   force =     0.00000001   -0.00000205   -0.00000954

     Total force =     0.007500     Total SCF correction =     0.000091

     Writing all to output data dir ./TMPDIR/pwscf.save/
 
     init_run     :     14.08s CPU     14.11s WALL (       1 calls)
     electrons    :      4.50s CPU      4.72s WALL (       1 calls)
     forces       :      0.18s CPU      0.19s WALL (       1 calls)

     Called by init_run:
     wfcinit      :      0.21s CPU      0.22s WALL (       1 calls)
     potinit      :     13.70s CPU     13.72s WALL (       1 calls)
     hinit0       :      0.14s CPU      0.14s WALL (       1 calls)

     Called by electrons:
     c_bands      :      3.46s CPU      3.58s WALL (       7 calls)
     sum_band     :      0.61s CPU      0.62s WALL (       7 calls)
     v_of_rho     :     14.02s CPU     14.08s WALL (       8 calls)
     newd         :      0.04s CPU      0.05s WALL (       8 calls)
     mix_rho      :      0.02s CPU      0.02s WALL (       7 calls)
     vdW_kernel   :     13.60s CPU     13.61s WALL (       1 calls)

     Called by c_bands:
     init_us_2    :      0.09s CPU      0.10s WALL (    1184 calls)
     init_us_2:cp :      0.09s CPU      0.09s WALL (    1184 calls)
     cegterg      :      3.30s CPU      3.40s WALL (     518 calls)

     Called by *egterg:
     cdiaghg      :      0.23s CPU      0.24s WALL (    2348 calls)
     h_psi        :      2.83s CPU      2.92s WALL (    2422 calls)
     s_psi        :      0.06s CPU      0.07s WALL (    2422 calls)
     g_psi        :      0.03s CPU      0.03s WALL (    1830 calls)

     Called by h_psi:
     h_psi:calbec :      0.12s CPU      0.12s WALL (    2422 calls)
     vloc_psi     :      2.62s CPU      2.70s WALL (    2422 calls)
     add_vuspsi   :      0.07s CPU      0.07s WALL (    2422 calls)

     General routines
     calbec       :      0.16s CPU      0.17s WALL (    3236 calls)
     fft          :      0.25s CPU      0.26s WALL (     563 calls)
     ffts         :      0.00s CPU      0.00s WALL (      15 calls)
     fftw         :      2.67s CPU      2.75s WALL (   29324 calls)
     interpolate  :      0.00s CPU      0.00s WALL (       8 calls)
 
     Parallel routines
 
     PWSCF        :     18.92s CPU     19.80s WALL

 
   This run was terminated on:  18:26:14  12Mar2024            

=------------------------------------------------------------------------------=
   JOB DONE.
=------------------------------------------------------------------------------=
