[0] MPI startup(): I_MPI_TCP_NETMASK variable has been removed from the product, its value is ignored


     Program PWSCF v.7.2 starts on 12Mar2024 at 17:39:21 

     This program is part of the open-source Quantum ESPRESSO suite
     for quantum simulation of materials; please cite
         "P. Giannozzi et al., J. Phys.:Condens. Matter 21 395502 (2009);
         "P. Giannozzi et al., J. Phys.:Condens. Matter 29 465901 (2017);
         "P. Giannozzi et al., J. Chem. Phys. 152 154105 (2020);
          URL http://www.quantum-espresso.org", 
     in publications or presentations arising from this work. More details at
     http://www.quantum-espresso.org/quote

     Parallel version (MPI), running on    16 processors

     MPI processes distributed on     1 nodes
     31543 MiB available memory on the printing compute node when the environment starts
 
     Reading input from espresso.pwi
Warning: card &CELL ignored
Warning: card / ignored

     Current dimensions of program PWSCF are:
     Max number of different atomic species (ntypx) = 10
     Max number of k-points (npk) =  40000
     Max angular momentum in pseudopotentials (lmaxx) =  4
 
     R & G space division:  proc/nbgrp/npool/nimage =      16
     Subspace diagonalization in iterative solution of the eigenvalue problem:
     a serial algorithm will be used

 
     Parallelization info
     --------------------
     sticks:   dense  smooth     PW     G-vecs:    dense   smooth      PW
     Min          67      34     10                 7115     2515     444
     Max          68      36     11                 7126     2519     463
     Sum        1085     551    167               113933    40273    7201
 
     Using Slab Decomposition
 


     bravais-lattice index     =            0
     lattice parameter (alat)  =       5.6973  a.u.
     unit-cell volume          =     642.1518 (a.u.)^3
     number of atoms/cell      =            4
     number of atomic types    =            2
     number of electrons       =         8.00
     number of Kohn-Sham states=            8
     kinetic-energy cutoff     =      60.0000  Ry
     charge density cutoff     =     480.0000  Ry
     scf convergence threshold =      1.0E-06
     mixing beta               =       0.7000
     number of iterations used =            8  plain     mixing
     Exchange-correlation=  SLA  PW   PBX  PBC
                           (   1   4   3   4   0   0   0)

     celldm(1)=   5.697334  celldm(2)=   0.000000  celldm(3)=   0.000000
     celldm(4)=   0.000000  celldm(5)=   0.000000  celldm(6)=   0.000000

     crystal axes: (cart. coord. in units of alat)
               a(1) = (   0.999994  -0.003591   0.000000 )  
               a(2) = (   0.503167   0.875437   0.000000 )  
               a(3) = (   0.000000   0.000000   3.958265 )  

     reciprocal axes: (cart. coord. in units 2 pi/alat)
               b(1) = (  0.997946 -0.573581  0.000000 )  
               b(2) = (  0.004094  1.139933  0.000000 )  
               b(3) = (  0.000000  0.000000  0.252636 )  


     PseudoPot. # 1 for B  read from file:
     /home/krojas/QE/pseudo/b_pbe_v1.4.uspp.F.UPF
     MD5 check sum: cc6de2960df11db49a60e589f9ebb39b
     Pseudo is Ultrasoft + core correction, Zval =  3.0
     Generated by new atomic code, or converted to UPF format
     Using radial grid of  781 points,  4 beta functions with: 
                l(1) =   0
                l(2) =   0
                l(3) =   1
                l(4) =   1
     Q(r) pseudized with  8 coefficients,  rinner =    1.100   1.100   1.100


     PseudoPot. # 2 for H  read from file:
     /home/krojas/QE/pseudo/h_pbe_v1.4.uspp.F.UPF
     MD5 check sum: 761ae9a214b05c3daf00ab9f6b793d6f
     Pseudo is Ultrasoft, Zval =  1.0
     Generated by new atomic code, or converted to UPF format
     Using radial grid of  615 points,  2 beta functions with: 
                l(1) =   0
                l(2) =   0
     Q(r) pseudized with  8 coefficients,  rinner =    0.700

     atomic species   valence    mass     pseudopotential
        B              3.00    10.81000     B ( 1.00)
        H              1.00     1.00800     H ( 1.00)

     No symmetry found



   Cartesian axes

     site n.     atom                  positions (alat units)
         1           B   tau(   1) = (   0.0000000   0.0000000   1.9791325  )
         2           B   tau(   2) = (   0.5009657   0.2715580   1.9791325  )
         3           H   tau(   3) = (   0.5020846   0.5735104   2.2998349  )
         4           H   tau(   4) = (   0.5020846   0.5735104   1.6617470  )

     number of k points=    74  Gaussian smearing, width (Ry)=  0.0100
                       cart. coord. in units 2pi/alat
        k(    1) = (   0.0000000   0.0000000   0.0000000), wk =   0.0138889
        k(    2) = (   0.0003412   0.0949944   0.0000000), wk =   0.0277778
        k(    3) = (   0.0006823   0.1899889   0.0000000), wk =   0.0277778
        k(    4) = (   0.0010235   0.2849833   0.0000000), wk =   0.0277778
        k(    5) = (   0.0013646   0.3799777   0.0000000), wk =   0.0277778
        k(    6) = (   0.0017058   0.4749722   0.0000000), wk =   0.0277778
        k(    7) = (  -0.0020470  -0.5699666   0.0000000), wk =   0.0138889
        k(    8) = (   0.0831622  -0.0477984   0.0000000), wk =   0.0277778
        k(    9) = (   0.0835034   0.0471960   0.0000000), wk =   0.0277778
        k(   10) = (   0.0838445   0.1421905   0.0000000), wk =   0.0277778
        k(   11) = (   0.0841857   0.2371849   0.0000000), wk =   0.0277778
        k(   12) = (   0.0845269   0.3321793   0.0000000), wk =   0.0277778
        k(   13) = (   0.0848680   0.4271738   0.0000000), wk =   0.0277778
        k(   14) = (   0.0811152  -0.6177650   0.0000000), wk =   0.0277778
        k(   15) = (   0.0814564  -0.5227706   0.0000000), wk =   0.0277778
        k(   16) = (   0.0817976  -0.4277762   0.0000000), wk =   0.0277778
        k(   17) = (   0.0821387  -0.3327817   0.0000000), wk =   0.0277778
        k(   18) = (   0.0824799  -0.2377873   0.0000000), wk =   0.0277778
        k(   19) = (   0.0828210  -0.1427928   0.0000000), wk =   0.0277778
        k(   20) = (   0.1663244  -0.0955968   0.0000000), wk =   0.0277778
        k(   21) = (   0.1666656  -0.0006024   0.0000000), wk =   0.0277778
        k(   22) = (   0.1670067   0.0943921   0.0000000), wk =   0.0277778
        k(   23) = (   0.1673479   0.1893865   0.0000000), wk =   0.0277778
        k(   24) = (   0.1676891   0.2843809   0.0000000), wk =   0.0277778
        k(   25) = (   0.1680302   0.3793754   0.0000000), wk =   0.0277778
        k(   26) = (   0.1642774  -0.6655634   0.0000000), wk =   0.0277778
        k(   27) = (   0.1646186  -0.5705690   0.0000000), wk =   0.0277778
        k(   28) = (   0.1649598  -0.4755746   0.0000000), wk =   0.0277778
        k(   29) = (   0.1653009  -0.3805801   0.0000000), wk =   0.0277778
        k(   30) = (   0.1656421  -0.2855857   0.0000000), wk =   0.0277778
        k(   31) = (   0.1659833  -0.1905913   0.0000000), wk =   0.0277778
        k(   32) = (   0.2494866  -0.1433952   0.0000000), wk =   0.0277778
        k(   33) = (   0.2498278  -0.0484008   0.0000000), wk =   0.0277778
        k(   34) = (   0.2501689   0.0465936   0.0000000), wk =   0.0277778
        k(   35) = (   0.2505101   0.1415881   0.0000000), wk =   0.0277778
        k(   36) = (   0.2508513   0.2365825   0.0000000), wk =   0.0277778
        k(   37) = (   0.2511924   0.3315769   0.0000000), wk =   0.0277778
        k(   38) = (   0.2474397  -0.7133618   0.0000000), wk =   0.0277778
        k(   39) = (   0.2477808  -0.6183674   0.0000000), wk =   0.0277778
        k(   40) = (   0.2481220  -0.5233730   0.0000000), wk =   0.0277778
        k(   41) = (   0.2484631  -0.4283785   0.0000000), wk =   0.0277778
        k(   42) = (   0.2488043  -0.3333841   0.0000000), wk =   0.0277778
        k(   43) = (   0.2491455  -0.2383897   0.0000000), wk =   0.0277778
        k(   44) = (   0.3326488  -0.1911936   0.0000000), wk =   0.0277778
        k(   45) = (   0.3329900  -0.0961992   0.0000000), wk =   0.0277778
        k(   46) = (   0.3333312  -0.0012048   0.0000000), wk =   0.0277778
        k(   47) = (   0.3336723   0.0937897   0.0000000), wk =   0.0277778
        k(   48) = (   0.3340135   0.1887841   0.0000000), wk =   0.0277778
        k(   49) = (   0.3343546   0.2837785   0.0000000), wk =   0.0277778
        k(   50) = (   0.3306019  -0.7611603   0.0000000), wk =   0.0277778
        k(   51) = (   0.3309430  -0.6661658   0.0000000), wk =   0.0277778
        k(   52) = (   0.3312842  -0.5711714   0.0000000), wk =   0.0277778
        k(   53) = (   0.3316253  -0.4761769   0.0000000), wk =   0.0277778
        k(   54) = (   0.3319665  -0.3811825   0.0000000), wk =   0.0277778
        k(   55) = (   0.3323077  -0.2861881   0.0000000), wk =   0.0277778
        k(   56) = (   0.4158110  -0.2389921   0.0000000), wk =   0.0277778
        k(   57) = (   0.4161522  -0.1439976   0.0000000), wk =   0.0277778
        k(   58) = (   0.4164934  -0.0490032   0.0000000), wk =   0.0277778
        k(   59) = (   0.4168345   0.0459913   0.0000000), wk =   0.0277778
        k(   60) = (   0.4171757   0.1409857   0.0000000), wk =   0.0277778
        k(   61) = (   0.4175169   0.2359801   0.0000000), wk =   0.0277778
        k(   62) = (   0.4137641  -0.8089587   0.0000000), wk =   0.0277778
        k(   63) = (   0.4141052  -0.7139642   0.0000000), wk =   0.0277778
        k(   64) = (   0.4144464  -0.6189698   0.0000000), wk =   0.0277778
        k(   65) = (   0.4147876  -0.5239754   0.0000000), wk =   0.0277778
        k(   66) = (   0.4151287  -0.4289809   0.0000000), wk =   0.0277778
        k(   67) = (   0.4154699  -0.3339865   0.0000000), wk =   0.0277778
        k(   68) = (  -0.4989732   0.2867905   0.0000000), wk =   0.0138889
        k(   69) = (  -0.4986321   0.3817849   0.0000000), wk =   0.0277778
        k(   70) = (  -0.4982909   0.4767793   0.0000000), wk =   0.0277778
        k(   71) = (  -0.4979498   0.5717738   0.0000000), wk =   0.0277778
        k(   72) = (  -0.4976086   0.6667682   0.0000000), wk =   0.0277778
        k(   73) = (  -0.4972674   0.7617626   0.0000000), wk =   0.0277778
        k(   74) = (  -0.5010202  -0.2831762   0.0000000), wk =   0.0138889

     Dense  grid:   113933 G-vectors     FFT dimensions: (  40,  45, 160)

     Smooth grid:    40273 G-vectors     FFT dimensions: (  30,  30, 120)

     Estimated max dynamical RAM per process >      13.53 MB

     Estimated total dynamical RAM >     216.40 MB

     Initial potential from superposition of free atoms

     starting charge       7.9994, renormalised to       8.0000

     negative rho (up, down):  1.273E-05 0.000E+00
     Starting wfcs are   10 randomized atomic wfcs

     total cpu time spent up to now is        0.5 secs

     Self-consistent Calculation

     iteration #  1     ecut=    60.00 Ry     beta= 0.70
     Davidson diagonalization with overlap
     ethr =  1.00E-02,  avg # of iterations =  3.8

     negative rho (up, down):  1.242E-05 0.000E+00

     total cpu time spent up to now is        1.3 secs

     total energy              =     -15.01335416 Ry
     estimated scf accuracy    <       0.32470400 Ry

     iteration #  2     ecut=    60.00 Ry     beta= 0.70
     Davidson diagonalization with overlap
     ethr =  4.06E-03,  avg # of iterations =  3.6

     negative rho (up, down):  2.183E-05 0.000E+00

     total cpu time spent up to now is        1.9 secs

     total energy              =     -15.06612560 Ry
     estimated scf accuracy    <       0.01711045 Ry

     iteration #  3     ecut=    60.00 Ry     beta= 0.70
     Davidson diagonalization with overlap
     ethr =  2.14E-04,  avg # of iterations =  5.3

     negative rho (up, down):  3.170E-05 0.000E+00

     total cpu time spent up to now is        2.6 secs

     total energy              =     -15.06900771 Ry
     estimated scf accuracy    <       0.00054444 Ry

     iteration #  4     ecut=    60.00 Ry     beta= 0.70
     Davidson diagonalization with overlap
     c_bands:  1 eigenvalues not converged
     c_bands:  1 eigenvalues not converged
     ethr =  6.81E-06,  avg # of iterations =  6.2

     negative rho (up, down):  3.272E-05 0.000E+00

     total cpu time spent up to now is        3.4 secs

     total energy              =     -15.06908367 Ry
     estimated scf accuracy    <       0.00008714 Ry

     iteration #  5     ecut=    60.00 Ry     beta= 0.70
     Davidson diagonalization with overlap
     ethr =  1.09E-06,  avg # of iterations =  2.4

     negative rho (up, down):  3.430E-05 0.000E+00

     total cpu time spent up to now is        3.9 secs

     total energy              =     -15.06910705 Ry
     estimated scf accuracy    <       0.00000600 Ry

     iteration #  6     ecut=    60.00 Ry     beta= 0.70
     Davidson diagonalization with overlap
     ethr =  7.50E-08,  avg # of iterations =  2.0

     negative rho (up, down):  3.467E-05 0.000E+00

     total cpu time spent up to now is        4.4 secs

     End of self-consistent calculation

          k = 0.0000 0.0000 0.0000 (  5017 PWs)   bands (ev):

   -14.4946  -8.7531  -3.0030  -0.5228   0.9835   2.3927   3.0123   5.6411

          k = 0.0003 0.0950 0.0000 (  4979 PWs)   bands (ev):

   -14.3959  -8.6352  -3.3947  -0.7753   1.1064   2.5341   3.1381   5.7668

          k = 0.0007 0.1900 0.0000 (  4988 PWs)   bands (ev):

   -14.1051  -8.2868  -4.3922  -1.3520   1.4883   2.9339   3.5234   4.0440

          k = 0.0010 0.2850 0.0000 (  5020 PWs)   bands (ev):

   -13.6403  -7.7271  -5.6669  -1.9762   1.9948   2.1288   3.7378   4.1414

          k = 0.0014 0.3800 0.0000 (  5038 PWs)   bands (ev):

   -13.0481  -7.0089  -6.9482  -2.4882   0.2597   2.9634   4.7197   4.7363

          k = 0.0017 0.4750 0.0000 (  5038 PWs)   bands (ev):

   -12.4533  -7.9969  -6.2695  -2.8154  -1.1068   3.7163   5.1418   5.9815

          k =-0.0020-0.5700 0.0000 (  5036 PWs)   bands (ev):

   -12.1647  -8.4416  -5.9021  -2.9273  -1.6862   3.9357   5.9300   6.5430

          k = 0.0832-0.0478 0.0000 (  5007 PWs)   bands (ev):

   -14.3960  -8.6524  -3.2847  -0.9156   1.1200   2.5344   3.1532   5.7078

          k = 0.0835 0.0472 0.0000 (  5007 PWs)   bands (ev):

   -14.3960  -8.6524  -3.2848  -0.9154   1.1200   2.5344   3.1532   5.7082

          k = 0.0838 0.1422 0.0000 (  5003 PWs)   bands (ev):

   -14.2015  -8.4209  -3.9823  -1.3284   1.3726   2.8089   3.4104   4.9204

          k = 0.0842 0.2372 0.0000 (  5010 PWs)   bands (ev):

   -13.8235  -7.9699  -5.0871  -1.9777   1.8899   2.8252   3.5286   3.9319

          k = 0.0845 0.3322 0.0000 (  5029 PWs)   bands (ev):

   -13.2922  -7.3321  -6.3283  -2.6060   1.1015   2.6533   4.2960   4.6600

          k = 0.0849 0.4272 0.0000 (  5030 PWs)   bands (ev):

   -12.6842  -7.4799  -6.5933  -3.0671  -0.4336   3.5630   5.2567   5.4110

          k = 0.0811-0.6178 0.0000 (  5055 PWs)   bands (ev):

   -12.2026  -8.2523  -5.9967  -3.3062  -1.4371   4.2214   5.8290   6.7330

          k = 0.0815-0.5228 0.0000 (  5055 PWs)   bands (ev):

   -12.2026  -8.2523  -5.9967  -3.3062  -1.4371   4.2214   5.8290   6.7335

          k = 0.0818-0.4278 0.0000 (  5030 PWs)   bands (ev):

   -12.6841  -7.4800  -6.5933  -3.0671  -0.4336   3.5631   5.2566   5.4111

          k = 0.0821-0.3328 0.0000 (  5029 PWs)   bands (ev):

   -13.2922  -7.3320  -6.3283  -2.6060   1.1015   2.6533   4.2961   4.6600

          k = 0.0825-0.2378 0.0000 (  5010 PWs)   bands (ev):

   -13.8235  -7.9699  -5.0870  -1.9778   1.8900   2.8253   3.5287   3.9318

          k = 0.0828-0.1428 0.0000 (  5003 PWs)   bands (ev):

   -14.2014  -8.4209  -3.9821  -1.3286   1.3727   2.8089   3.4104   4.9210

          k = 0.1663-0.0956 0.0000 (  5007 PWs)   bands (ev):

   -14.1064  -8.3604  -4.0490  -1.7924   1.5343   2.9469   3.5791   5.3838

          k = 0.1667-0.0006 0.0000 (  4991 PWs)   bands (ev):

   -14.2019  -8.4720  -3.6912  -1.6981   1.4064   2.8163   3.4491   6.0243

          k = 0.1670 0.0944 0.0000 (  5007 PWs)   bands (ev):

   -14.1065  -8.3604  -4.0493  -1.7920   1.5343   2.9468   3.5790   5.3834

          k = 0.1673 0.1894 0.0000 (  5031 PWs)   bands (ev):

   -13.8259  -8.0322  -4.8692  -2.2558   1.9225   3.1744   3.8516   3.9741

          k = 0.1677 0.2844 0.0000 (  5037 PWs)   bands (ev):

   -13.3811  -7.5107  -5.8695  -2.9941   1.8675   2.5745   4.1764   4.6389

          k = 0.1680 0.3794 0.0000 (  5046 PWs)   bands (ev):

   -12.8230  -6.9035  -6.8520  -3.6746   0.3700   3.4565   5.1136   5.5158

          k = 0.1643-0.6656 0.0000 (  5071 PWs)   bands (ev):

   -12.2786  -7.7699  -6.2102  -4.1144  -0.8005   4.4343   6.2259   6.2955

          k = 0.1646-0.5706 0.0000 (  5067 PWs)   bands (ev):

   -12.0240  -8.1403  -5.9071  -4.2632  -1.2822   4.9655   6.9330   7.0515

          k = 0.1650-0.4756 0.0000 (  5071 PWs)   bands (ev):

   -12.2785  -7.7699  -6.2102  -4.1144  -0.8004   4.4344   6.2260   6.2956

          k = 0.1653-0.3806 0.0000 (  5048 PWs)   bands (ev):

   -12.8229  -6.9034  -6.8520  -3.6747   0.3701   3.4566   5.1137   5.5159

          k = 0.1656-0.2856 0.0000 (  5037 PWs)   bands (ev):

   -13.3810  -7.5107  -5.8693  -2.9943   1.8677   2.5746   4.1765   4.6389

          k = 0.1660-0.1906 0.0000 (  5031 PWs)   bands (ev):

   -13.8259  -8.0321  -4.8689  -2.2562   1.9226   3.1745   3.8518   3.9742

          k = 0.2495-0.1434 0.0000 (  5031 PWs)   bands (ev):

   -13.6488  -7.9119  -5.1322  -2.6763   2.2265   3.3575   4.1535   4.2860

          k = 0.2498-0.0484 0.0000 (  5026 PWs)   bands (ev):

   -13.8279  -8.1141  -4.5072  -2.7073   1.9666   3.3553   4.0265   5.1903

          k = 0.2502 0.0466 0.0000 (  5026 PWs)   bands (ev):

   -13.8279  -8.1141  -4.5074  -2.7070   1.9666   3.3553   4.0264   5.1900

          k = 0.2505 0.1416 0.0000 (  5031 PWs)   bands (ev):

   -13.6489  -7.9119  -5.1326  -2.6757   2.2264   3.3573   4.1532   4.2859

          k = 0.2509 0.2366 0.0000 (  5038 PWs)   bands (ev):

   -13.3058  -7.5252  -5.9004  -3.1526   2.2901   2.7448   4.3752   4.8004

          k = 0.2512 0.3316 0.0000 (  5053 PWs)   bands (ev):

   -12.8374  -6.9987  -6.6337  -3.9906   1.0376   3.5138   5.1325   5.6097

          k = 0.2474-0.7134 0.0000 (  5056 PWs)   bands (ev):

   -12.3301  -7.2750  -6.4302  -4.7680  -0.0273   4.4697   5.9583   6.5955

          k = 0.2478-0.6184 0.0000 (  5062 PWs)   bands (ev):

   -11.9620  -7.7026  -6.0201  -5.2063  -0.6890   5.3526   6.1953   7.2940

          k = 0.2481-0.5234 0.0000 (  5062 PWs)   bands (ev):

   -11.9619  -7.7026  -6.0201  -5.2064  -0.6889   5.3526   6.1952   7.2943

          k = 0.2485-0.4284 0.0000 (  5056 PWs)   bands (ev):

   -12.3300  -7.2749  -6.4302  -4.7682  -0.0271   4.4698   5.9583   6.5956

          k = 0.2488-0.3334 0.0000 (  5053 PWs)   bands (ev):

   -12.8373  -6.9987  -6.6335  -3.9910   1.0378   3.5139   5.1328   5.6098

          k = 0.2491-0.2384 0.0000 (  5038 PWs)   bands (ev):

   -13.3058  -7.5251  -5.9000  -3.1532   2.2905   2.7449   4.3753   4.8001

          k = 0.3326-0.1912 0.0000 (  5036 PWs)   bands (ev):

   -13.0790  -7.3828  -6.3089  -3.3354   2.2946   3.1790   4.7795   4.8216

          k = 0.3330-0.0962 0.0000 (  5043 PWs)   bands (ev):

   -13.3107  -7.6278  -5.6079  -3.5155   2.7950   3.3521   4.4006   4.8807

          k = 0.3333-0.0012 0.0000 (  5043 PWs)   bands (ev):

   -13.3912  -7.7132  -5.1696  -3.8286   2.6640   4.0039   4.2306   4.7488

          k = 0.3337 0.0938 0.0000 (  5043 PWs)   bands (ev):

   -13.3107  -7.6278  -5.6083  -3.5149   2.7949   3.3516   4.4005   4.8804

          k = 0.3340 0.1888 0.0000 (  5036 PWs)   bands (ev):

   -13.0791  -7.3828  -6.3093  -3.3347   2.2941   3.1789   4.7803   4.8215

          k = 0.3344 0.2838 0.0000 (  5056 PWs)   bands (ev):

   -12.7296  -7.0153  -6.8921  -3.8002   1.3348   3.8018   5.1694   5.4804

          k = 0.3306-0.7612 0.0000 (  5051 PWs)   bands (ev):

   -12.3308  -7.2444  -6.5959  -4.7026   0.5818   4.6309   6.1002   6.3778

          k = 0.3309-0.6662 0.0000 (  5056 PWs)   bands (ev):

   -11.9980  -7.3154  -6.2450  -5.6067   0.0871   5.4730   5.7516   7.4478

          k = 0.3313-0.5712 0.0000 (  5049 PWs)   bands (ev):

   -11.8656  -7.2430  -6.1044  -6.0435  -0.0893   5.4752   5.8533   7.8513

          k = 0.3316-0.4762 0.0000 (  5056 PWs)   bands (ev):

   -11.9979  -7.3152  -6.2450  -5.6070   0.0873   5.4731   5.7515   7.4479

          k = 0.3320-0.3812 0.0000 (  5051 PWs)   bands (ev):

   -12.3307  -7.2441  -6.5959  -4.7031   0.5821   4.6310   6.1001   6.3768

          k = 0.3323-0.2862 0.0000 (  5056 PWs)   bands (ev):

   -12.7294  -7.0152  -6.8918  -3.8008   1.3352   3.8019   5.1685   5.4805

          k = 0.4158-0.2390 0.0000 (  5035 PWs)   bands (ev):

   -12.5319  -7.2825  -6.9173  -3.7289   1.2975   4.3104   4.6018   6.0661

          k = 0.4162-0.1440 0.0000 (  5059 PWs)   bands (ev):

   -12.7372  -7.1114  -6.7224  -4.0101   2.0206   3.8594   5.2106   5.3945

          k = 0.4165-0.0490 0.0000 (  5060 PWs)   bands (ev):

   -12.8550  -7.2219  -6.0349  -4.6755   2.8139   3.6082   4.8044   5.7349

          k = 0.4168 0.0460 0.0000 (  5060 PWs)   bands (ev):

   -12.8550  -7.2219  -6.0352  -4.6751   2.8136   3.6082   4.8045   5.7349

          k = 0.4172 0.1410 0.0000 (  5059 PWs)   bands (ev):

   -12.7372  -7.1114  -6.7228  -4.0095   2.0201   3.8593   5.2114   5.3944

          k = 0.4175 0.2360 0.0000 (  5035 PWs)   bands (ev):

   -12.5320  -7.2829  -6.9173  -3.7282   1.2970   4.3103   4.6025   6.0662

          k = 0.4138-0.8090 0.0000 (  5051 PWs)   bands (ev):

   -12.3000  -7.5396  -6.6922  -4.1522   0.8584   4.8744   5.1297   6.7382

          k = 0.4141-0.7140 0.0000 (  5056 PWs)   bands (ev):

   -12.1145  -7.4114  -6.4990  -5.0519   0.7241   5.4415   6.0076   6.3321

          k = 0.4144-0.6190 0.0000 (  5053 PWs)   bands (ev):

   -12.0197  -6.8930  -6.3900  -6.0412   0.7684   5.1871   5.5536   7.6147

          k = 0.4148-0.5240 0.0000 (  5053 PWs)   bands (ev):

   -12.0197  -6.8927  -6.3900  -6.0417   0.7685   5.1869   5.5537   7.6149

          k = 0.4151-0.4290 0.0000 (  5056 PWs)   bands (ev):

   -12.1144  -7.4111  -6.4990  -5.0524   0.7244   5.4417   6.0072   6.3312

          k = 0.4155-0.3340 0.0000 (  5051 PWs)   bands (ev):

   -12.2998  -7.5393  -6.6921  -4.1528   0.8589   4.8741   5.1292   6.7382

          k =-0.4990 0.2868 0.0000 (  5038 PWs)   bands (ev):

   -12.2814  -7.6844  -6.7230  -3.8595   0.9161   4.4923   5.1949   6.6962

          k =-0.4986 0.3818 0.0000 (  5049 PWs)   bands (ev):

   -12.3046  -7.4840  -6.7346  -4.2194   1.0936   4.9925   5.0474   6.5706

          k =-0.4983 0.4768 0.0000 (  5054 PWs)   bands (ev):

   -12.3492  -6.9312  -6.7572  -5.0504   1.5287   4.7183   5.4916   6.4104

          k =-0.4979 0.5718 0.0000 (  5075 PWs)   bands (ev):

   -12.3707  -6.7690  -6.3268  -5.7775   1.8177   4.6115   4.9428   6.7997

          k =-0.4976 0.6668 0.0000 (  5054 PWs)   bands (ev):

   -12.3493  -6.9317  -6.7572  -5.0498   1.5283   4.7182   5.4918   6.4112

          k =-0.4973 0.7618 0.0000 (  5049 PWs)   bands (ev):

   -12.3047  -7.4843  -6.7346  -4.2187   1.0931   4.9924   5.0482   6.5707

          k =-0.5010-0.2832 0.0000 (  5038 PWs)   bands (ev):

   -12.2815  -7.6847  -6.7230  -3.8588   0.9156   4.4932   5.1947   6.6960

     the Fermi energy is    -1.1709 ev

!    total energy              =     -15.06910839 Ry
     estimated scf accuracy    <       0.00000013 Ry
     smearing contrib. (-TS)   =      -0.00016533 Ry
     internal energy E=F+TS    =     -15.06894307 Ry

     The total energy is F=E-TS. E is the sum of the following terms:
     one-electron contribution =     -65.75302872 Ry
     hartree contribution      =      34.45468037 Ry
     xc contribution           =      -7.30463275 Ry
     ewald contribution        =      23.53403803 Ry

     convergence has been achieved in   6 iterations

     negative rho (up, down):  3.467E-05 0.000E+00

     Forces acting on atoms (cartesian axes, Ry/au):

     atom    1 type  1   force =    -0.00003325    0.00070192    0.00228023
     atom    2 type  1   force =     0.00003717   -0.00067724    0.00228008
     atom    3 type  2   force =    -0.00000208   -0.00001213    0.00086516
     atom    4 type  2   force =    -0.00000183   -0.00001255   -0.00542546
     The non-local contrib.  to forces
     atom    1 type  1   force =    -0.00127703   -0.34357785    0.00248115
     atom    2 type  1   force =     0.00129709    0.34362045    0.00248103
     atom    3 type  2   force =    -0.00000732    0.00000425   -0.11077731
     atom    4 type  2   force =    -0.00000748    0.00000439    0.11226617
     The ionic contribution  to forces
     atom    1 type  1   force =     0.00246890    0.70483078    0.00119426
     atom    2 type  1   force =    -0.00256546   -0.70474582    0.00119282
     atom    3 type  2   force =     0.00004773   -0.00004178    2.57799856
     atom    4 type  2   force =     0.00004882   -0.00004318   -2.58038563
     The local contribution  to forces
     atom    1 type  1   force =    -0.00125218   -0.36772782   -0.00138450
     atom    2 type  1   force =     0.00133245    0.36762722   -0.00138347
     atom    3 type  2   force =    -0.00004273    0.00002551   -2.46638462
     atom    4 type  2   force =    -0.00004332    0.00002583    2.46265258
     The core correction contribution to forces
     atom    1 type  1   force =     0.00002692    0.00704196   -0.00011619
     atom    2 type  1   force =    -0.00002725   -0.00704363   -0.00011623
     atom    3 type  2   force =     0.00000000    0.00000000    0.00000000
     atom    4 type  2   force =     0.00000000    0.00000000    0.00000000
     The Hubbard contrib.    to forces
     atom    1 type  1   force =     0.00000000    0.00000000    0.00000000
     atom    2 type  1   force =     0.00000000    0.00000000    0.00000000
     atom    3 type  2   force =     0.00000000    0.00000000    0.00000000
     atom    4 type  2   force =     0.00000000    0.00000000    0.00000000
     The SCF correction term to forces
     atom    1 type  1   force =     0.00000002    0.00013510    0.00008324
     atom    2 type  1   force =     0.00000022   -0.00013520    0.00008365
     atom    3 type  2   force =     0.00000013    0.00000017    0.00000625
     atom    4 type  2   force =     0.00000003    0.00000068    0.00001915

     Total force =     0.006445     Total SCF correction =     0.000226

     Writing all to output data dir ./TMPDIR/pwscf.save/
 
     init_run     :      0.44s CPU      0.46s WALL (       1 calls)
     electrons    :      3.75s CPU      3.91s WALL (       1 calls)
     forces       :      0.14s CPU      0.14s WALL (       1 calls)

     Called by init_run:
     wfcinit      :      0.20s CPU      0.21s WALL (       1 calls)
     potinit      :      0.06s CPU      0.06s WALL (       1 calls)
     hinit0       :      0.15s CPU      0.15s WALL (       1 calls)

     Called by electrons:
     c_bands      :      3.12s CPU      3.22s WALL (       6 calls)
     sum_band     :      0.52s CPU      0.53s WALL (       6 calls)
     v_of_rho     :      0.07s CPU      0.07s WALL (       7 calls)
     newd         :      0.04s CPU      0.04s WALL (       7 calls)
     mix_rho      :      0.01s CPU      0.01s WALL (       6 calls)

     Called by c_bands:
     init_us_2    :      0.08s CPU      0.08s WALL (    1036 calls)
     init_us_2:cp :      0.08s CPU      0.08s WALL (    1036 calls)
     cegterg      :      2.98s CPU      3.07s WALL (     444 calls)

     Called by *egterg:
     cdiaghg      :      0.21s CPU      0.22s WALL (    2171 calls)
     h_psi        :      2.53s CPU      2.61s WALL (    2245 calls)
     s_psi        :      0.06s CPU      0.06s WALL (    2245 calls)
     g_psi        :      0.03s CPU      0.03s WALL (    1727 calls)

     Called by h_psi:
     h_psi:calbec :      0.11s CPU      0.11s WALL (    2245 calls)
     vloc_psi     :      2.33s CPU      2.41s WALL (    2245 calls)
     add_vuspsi   :      0.06s CPU      0.06s WALL (    2245 calls)

     General routines
     calbec       :      0.14s CPU      0.15s WALL (    2985 calls)
     fft          :      0.10s CPU      0.10s WALL (     100 calls)
     ffts         :      0.00s CPU      0.00s WALL (      13 calls)
     fftw         :      2.37s CPU      2.44s WALL (   26116 calls)
     interpolate  :      0.00s CPU      0.00s WALL (       7 calls)
 
     Parallel routines
 
     PWSCF        :      4.48s CPU      5.29s WALL

 
   This run was terminated on:  17:39:26  12Mar2024            

=------------------------------------------------------------------------------=
   JOB DONE.
=------------------------------------------------------------------------------=
