[0] MPI startup(): I_MPI_TCP_NETMASK variable has been removed from the product, its value is ignored


     Program PWSCF v.7.2 starts on 12Mar2024 at 16:57:42 

     This program is part of the open-source Quantum ESPRESSO suite
     for quantum simulation of materials; please cite
         "P. Giannozzi et al., J. Phys.:Condens. Matter 21 395502 (2009);
         "P. Giannozzi et al., J. Phys.:Condens. Matter 29 465901 (2017);
         "P. Giannozzi et al., J. Chem. Phys. 152 154105 (2020);
          URL http://www.quantum-espresso.org", 
     in publications or presentations arising from this work. More details at
     http://www.quantum-espresso.org/quote

     Parallel version (MPI), running on    16 processors

     MPI processes distributed on     1 nodes
     31646 MiB available memory on the printing compute node when the environment starts
 
     Reading input from espresso.pwi
Warning: card &CELL ignored
Warning: card / ignored

     Current dimensions of program PWSCF are:
     Max number of different atomic species (ntypx) = 10
     Max number of k-points (npk) =  40000
     Max angular momentum in pseudopotentials (lmaxx) =  4
     Presently no symmetry can be used with electric field

 
     R & G space division:  proc/nbgrp/npool/nimage =      16
     Subspace diagonalization in iterative solution of the eigenvalue problem:
     a serial algorithm will be used

 
     Parallelization info
     --------------------
     sticks:   dense  smooth     PW     G-vecs:    dense   smooth      PW
     Min         852     426    106                74904    26480    3306
     Max         853     427    107                74907    26483    3309
     Sum       13637    6817   1701              1198487   423701   52923
 
     Using Slab Decomposition
 


     bravais-lattice index     =            0
     lattice parameter (alat)  =      18.8973  a.u.
     unit-cell volume          =    6748.3345 (a.u.)^3
     number of atoms/cell      =            3
     number of atomic types    =            2
     number of electrons       =         8.00
     number of Kohn-Sham states=            8
     kinetic-energy cutoff     =      60.0000  Ry
     charge density cutoff     =     480.0000  Ry
     scf convergence threshold =      1.0E-06
     mixing beta               =       0.7000
     number of iterations used =            8  plain     mixing
     Exchange-correlation=  SLA  PW   PBX  PBC
                           (   1   4   3   4   0   0   0)

     celldm(1)=  18.897261  celldm(2)=   0.000000  celldm(3)=   0.000000
     celldm(4)=   0.000000  celldm(5)=   0.000000  celldm(6)=   0.000000

     crystal axes: (cart. coord. in units of alat)
               a(1) = (   1.000000   0.000000   0.000000 )  
               a(2) = (   0.000000   1.000000   0.000000 )  
               a(3) = (   0.000000   0.000000   1.000000 )  

     reciprocal axes: (cart. coord. in units 2 pi/alat)
               b(1) = (  1.000000  0.000000  0.000000 )  
               b(2) = (  0.000000  1.000000  0.000000 )  
               b(3) = (  0.000000  0.000000  1.000000 )  


     PseudoPot. # 1 for O  read from file:
     /home/krojas/share/lib/qe_pseudo/gbrv/o_pbe_v1.2.uspp.F.UPF
     MD5 check sum: 734c27235a0248c51dbae37a1fbe46ec
     Pseudo is Ultrasoft + core correction, Zval =  6.0
     Generated by new atomic code, or converted to UPF format
     Using radial grid of  737 points,  5 beta functions with: 
                l(1) =   0
                l(2) =   0
                l(3) =   1
                l(4) =   1
                l(5) =   2
     Q(r) pseudized with  8 coefficients,  rinner =    0.900   0.900   0.900
                                                       0.900   0.900

     PseudoPot. # 2 for H  read from file:
     /home/krojas/share/lib/qe_pseudo/gbrv/h_pbe_v1.4.uspp.F.UPF
     MD5 check sum: 761ae9a214b05c3daf00ab9f6b793d6f
     Pseudo is Ultrasoft, Zval =  1.0
     Generated by new atomic code, or converted to UPF format
     Using radial grid of  615 points,  2 beta functions with: 
                l(1) =   0
                l(2) =   0
     Q(r) pseudized with  8 coefficients,  rinner =    0.700

     atomic species   valence    mass     pseudopotential
        O              6.00    15.99900     O ( 1.00)
        H              1.00     1.00800     H ( 1.00)

     No symmetry found



   Cartesian axes

     site n.     atom                  positions (alat units)
         1           O   tau(   1) = (   0.5000000   0.5000000   0.5302993  )
         2           H   tau(   2) = (   0.5000000   0.5769636   0.4697007  )
         3           H   tau(   3) = (   0.5000000   0.4230364   0.4697007  )

     number of k points=     1  Gaussian smearing, width (Ry)=  0.0100
                       cart. coord. in units 2pi/alat
        k(    1) = (   0.0000000   0.0000000   0.0000000), wk =   2.0000000

     Dense  grid:  1198487 G-vectors     FFT dimensions: ( 135, 135, 135)

     Smooth grid:   423701 G-vectors     FFT dimensions: (  96,  96,  96)

     Estimated max dynamical RAM per process >     174.40 MB

     Estimated total dynamical RAM >       2.73 GB

     Initial potential from superposition of free atoms

     starting charge       8.0000, renormalised to       8.0000

     negative rho (up, down):  1.614E-04 0.000E+00
 
     Adding external electric field

     Computed dipole along edir(3) : 
        Dipole               -0.0000 Ry au,         -0.0001 Debye
        Dipole field         -0.0000 Ry au, 
 
        Potential amp.        0.0000 Ry
        Total length         18.8954 bohr
 
     Starting wfcs are    6 randomized atomic wfcs +    2 random wfcs

     total cpu time spent up to now is        1.2 secs

     Self-consistent Calculation

     iteration #  1     ecut=    60.00 Ry     beta= 0.70
     Davidson diagonalization with overlap
     ethr =  1.00E-02,  avg # of iterations =  8.0

     negative rho (up, down):  7.805E-04 0.000E+00
 
     Adding external electric field

     Computed dipole along edir(3) : 
        Dipole               -0.7981 Ry au,         -2.0284 Debye
        Dipole field         -0.0015 Ry au, 
 
        Potential amp.        0.0562 Ry
        Total length         18.8954 bohr
 

     total cpu time spent up to now is        2.1 secs

     total energy              =     -34.47195225 Ry
     estimated scf accuracy    <       0.45929106 Ry

     iteration #  2     ecut=    60.00 Ry     beta= 0.70
     Davidson diagonalization with overlap
     ethr =  5.74E-03,  avg # of iterations =  2.0

     negative rho (up, down):  6.939E-04 0.000E+00
 
     Adding external electric field

     Computed dipole along edir(3) : 
        Dipole               -0.5724 Ry au,         -1.4548 Debye
        Dipole field         -0.0011 Ry au, 
 
        Potential amp.        0.0403 Ry
        Total length         18.8954 bohr
 

     total cpu time spent up to now is        2.9 secs

     total energy              =     -34.57686244 Ry
     estimated scf accuracy    <       0.48033161 Ry

     iteration #  3     ecut=    60.00 Ry     beta= 0.70
     Davidson diagonalization with overlap
     ethr =  5.74E-03,  avg # of iterations =  2.0

     negative rho (up, down):  1.155E-03 0.000E+00
 
     Adding external electric field

     Computed dipole along edir(3) : 
        Dipole               -0.7049 Ry au,         -1.7917 Debye
        Dipole field         -0.0013 Ry au, 
 
        Potential amp.        0.0496 Ry
        Total length         18.8954 bohr
 

     total cpu time spent up to now is        3.6 secs

     total energy              =     -34.66595639 Ry
     estimated scf accuracy    <       0.00400383 Ry

     iteration #  4     ecut=    60.00 Ry     beta= 0.70
     Davidson diagonalization with overlap
     ethr =  5.00E-05,  avg # of iterations =  5.0

     negative rho (up, down):  1.066E-03 0.000E+00
 
     Adding external electric field

     Computed dipole along edir(3) : 
        Dipole               -0.6991 Ry au,         -1.7768 Debye
        Dipole field         -0.0013 Ry au, 
 
        Potential amp.        0.0492 Ry
        Total length         18.8954 bohr
 

     total cpu time spent up to now is        4.4 secs

     total energy              =     -34.66681892 Ry
     estimated scf accuracy    <       0.00131563 Ry

     iteration #  5     ecut=    60.00 Ry     beta= 0.70
     Davidson diagonalization with overlap
     ethr =  1.64E-05,  avg # of iterations =  2.0

     negative rho (up, down):  1.076E-03 0.000E+00
 
     Adding external electric field

     Computed dipole along edir(3) : 
        Dipole               -0.7079 Ry au,         -1.7994 Debye
        Dipole field         -0.0013 Ry au, 
 
        Potential amp.        0.0498 Ry
        Total length         18.8954 bohr
 

     total cpu time spent up to now is        5.2 secs

     total energy              =     -34.66671955 Ry
     estimated scf accuracy    <       0.00024281 Ry

     iteration #  6     ecut=    60.00 Ry     beta= 0.70
     Davidson diagonalization with overlap
     ethr =  3.04E-06,  avg # of iterations =  9.0

     negative rho (up, down):  1.086E-03 0.000E+00
 
     Adding external electric field

     Computed dipole along edir(3) : 
        Dipole               -0.7023 Ry au,         -1.7852 Debye
        Dipole field         -0.0013 Ry au, 
 
        Potential amp.        0.0494 Ry
        Total length         18.8954 bohr
 

     total cpu time spent up to now is        6.0 secs

     total energy              =     -34.66678696 Ry
     estimated scf accuracy    <       0.00005015 Ry

     iteration #  7     ecut=    60.00 Ry     beta= 0.70
     Davidson diagonalization with overlap
     ethr =  6.27E-07,  avg # of iterations =  2.0

     negative rho (up, down):  1.094E-03 0.000E+00
 
     Adding external electric field

     Computed dipole along edir(3) : 
        Dipole               -0.7027 Ry au,         -1.7860 Debye
        Dipole field         -0.0013 Ry au, 
 
        Potential amp.        0.0494 Ry
        Total length         18.8954 bohr
 

     total cpu time spent up to now is        6.8 secs

     total energy              =     -34.66679808 Ry
     estimated scf accuracy    <       0.00000149 Ry

     iteration #  8     ecut=    60.00 Ry     beta= 0.70
     Davidson diagonalization with overlap
     ethr =  1.86E-08,  avg # of iterations =  2.0

     negative rho (up, down):  1.094E-03 0.000E+00
 
     Adding external electric field

     Computed dipole along edir(3) : 
        Dipole               -0.7030 Ry au,         -1.7868 Debye
        Dipole field         -0.0013 Ry au, 
 
        Potential amp.        0.0495 Ry
        Total length         18.8954 bohr
 

     total cpu time spent up to now is        7.5 secs

     End of self-consistent calculation

          k = 0.0000 0.0000 0.0000 ( 52923 PWs)   bands (ev):

   -25.0494 -12.8473  -9.2181  -7.0990  -1.0456   0.3350   0.6578   1.0004

     the Fermi energy is    -4.8317 ev

!    total energy              =     -34.66679823 Ry
     estimated scf accuracy    <       0.00000002 Ry
     smearing contrib. (-TS)   =      -0.00000000 Ry
     internal energy E=F+TS    =     -34.66679823 Ry

     The total energy is F=E-TS. E is the sum of the following terms:
     one-electron contribution =     -63.13054086 Ry
     hartree contribution      =      33.06646191 Ry
     xc contribution           =      -8.67805393 Ry
     ewald contribution        =       4.07441436 Ry
     electric field correction =       0.00092028 Ry

     convergence has been achieved in   8 iterations

     negative rho (up, down):  1.094E-03 0.000E+00

     Forces acting on atoms (cartesian axes, Ry/au):

     atom    1 type  1   force =     0.00000857   -0.00000379   -0.00059249
     atom    2 type  2   force =    -0.00000447    0.00052580    0.00029533
     atom    3 type  2   force =    -0.00000410   -0.00052201    0.00029717
     The non-local contrib.  to forces
     atom    1 type  1   force =     0.00001732    0.00000291   -2.18222404
     atom    2 type  2   force =     0.00000015   -0.19511410    0.14177742
     atom    3 type  2   force =     0.00000026    0.19511392    0.14177791
     The ionic contribution  to forces
     atom    1 type  1   force =     0.00000000    0.00000000    4.31601228
     atom    2 type  2   force =    -0.00000000    2.97311226   -2.15800614
     atom    3 type  2   force =     0.00000000   -2.97311226   -2.15800614
     The local contribution  to forces
     atom    1 type  1   force =    -0.00003272   -0.00001075   -2.16164047
     atom    2 type  2   force =    -0.00000071   -2.77750147    2.01400521
     atom    3 type  2   force =    -0.00000057    2.77750096    2.01400751
     The core correction contribution to forces
     atom    1 type  1   force =    -0.00000031   -0.00000010    0.01164667
     atom    2 type  2   force =     0.00000000    0.00000000    0.00000000
     atom    3 type  2   force =     0.00000000    0.00000000    0.00000000
     The Hubbard contrib.    to forces
     atom    1 type  1   force =     0.00000000    0.00000000    0.00000000
     atom    2 type  2   force =     0.00000000    0.00000000    0.00000000
     atom    3 type  2   force =     0.00000000    0.00000000    0.00000000
     The SCF correction term to forces
     atom    1 type  1   force =     0.00002961    0.00000111   -0.00003113
     atom    2 type  2   force =     0.00000141    0.00002608   -0.00003454
     atom    3 type  2   force =     0.00000153   -0.00002766   -0.00003550

     Total force =     0.001037     Total SCF correction =     0.000076

     Writing all to output data dir TMPDIR/pwscf.save/
 
     init_run     :      0.88s CPU      1.15s WALL (       1 calls)
     electrons    :      5.26s CPU      6.64s WALL (       1 calls)
     forces       :      0.49s CPU      0.55s WALL (       1 calls)

     Called by init_run:
     wfcinit      :      0.02s CPU      0.14s WALL (       1 calls)
     potinit      :      0.22s CPU      0.25s WALL (       1 calls)
     hinit0       :      0.14s CPU      0.18s WALL (       1 calls)

     Called by electrons:
     c_bands      :      0.58s CPU      0.59s WALL (       8 calls)
     sum_band     :      1.89s CPU      2.38s WALL (       8 calls)
     v_of_rho     :      1.37s CPU      1.40s WALL (       9 calls)
     newd         :      1.20s CPU      1.79s WALL (       9 calls)
     mix_rho      :      0.32s CPU      0.32s WALL (       8 calls)

     Called by c_bands:
     init_us_2    :      0.02s CPU      0.02s WALL (      17 calls)
     init_us_2:cp :      0.02s CPU      0.02s WALL (      17 calls)
     cegterg      :      0.55s CPU      0.56s WALL (       8 calls)

     Called by *egterg:
     cdiaghg      :      0.01s CPU      0.09s WALL (      40 calls)
     h_psi        :      0.49s CPU      0.53s WALL (      41 calls)
     s_psi        :      0.01s CPU      0.01s WALL (      41 calls)
     g_psi        :      0.00s CPU      0.00s WALL (      32 calls)

     Called by h_psi:
     h_psi:calbec :      0.02s CPU      0.05s WALL (      41 calls)
     vloc_psi     :      0.46s CPU      0.47s WALL (      41 calls)
     add_vuspsi   :      0.01s CPU      0.01s WALL (      41 calls)

     General routines
     calbec       :      0.03s CPU      0.06s WALL (      53 calls)
     fft          :      1.25s CPU      1.27s WALL (     126 calls)
     ffts         :      0.02s CPU      0.04s WALL (      17 calls)
     fftw         :      0.32s CPU      0.32s WALL (     480 calls)
     interpolate  :      0.10s CPU      0.11s WALL (       9 calls)
 
     Parallel routines
 
     PWSCF        :      6.75s CPU      8.92s WALL

 
   This run was terminated on:  16:57:51  12Mar2024            

=------------------------------------------------------------------------------=
   JOB DONE.
=------------------------------------------------------------------------------=
