[0] MPI startup(): I_MPI_TCP_NETMASK variable has been removed from the product, its value is ignored


     Program PWSCF v.7.2 starts on 12Mar2024 at 18:26:21 

     This program is part of the open-source Quantum ESPRESSO suite
     for quantum simulation of materials; please cite
         "P. Giannozzi et al., J. Phys.:Condens. Matter 21 395502 (2009);
         "P. Giannozzi et al., J. Phys.:Condens. Matter 29 465901 (2017);
         "P. Giannozzi et al., J. Chem. Phys. 152 154105 (2020);
          URL http://www.quantum-espresso.org", 
     in publications or presentations arising from this work. More details at
     http://www.quantum-espresso.org/quote

     Parallel version (MPI), running on    16 processors

     MPI processes distributed on     1 nodes
     43293 MiB available memory on the printing compute node when the environment starts
 
     Reading input from espresso.pwi
Warning: card &CELL ignored
Warning: card / ignored

     Current dimensions of program PWSCF are:
     Max number of different atomic species (ntypx) = 10
     Max number of k-points (npk) =  40000
     Max angular momentum in pseudopotentials (lmaxx) =  4
     Presently no symmetry can be used with electric field


     IMPORTANT: XC functional enforced from input :
     Exchange-correlation= VDW-DF2-B86R
                           (   1   4  26   0   2   0   0)
     Any further DFT definition will be discarded
     Please, verify this is what you really want

 
     R & G space division:  proc/nbgrp/npool/nimage =      16
     Subspace diagonalization in iterative solution of the eigenvalue problem:
     a serial algorithm will be used

 
     Parallelization info
     --------------------
     sticks:   dense  smooth     PW     G-vecs:    dense   smooth      PW
     Min          67      34     10                 7115     2515     444
     Max          68      36     11                 7126     2519     463
     Sum        1085     551    167               113933    40273    7201
 
     Using Slab Decomposition
 


     bravais-lattice index     =            0
     lattice parameter (alat)  =       5.6973  a.u.
     unit-cell volume          =     642.1518 (a.u.)^3
     number of atoms/cell      =            4
     number of atomic types    =            2
     number of electrons       =         8.00
     number of Kohn-Sham states=            8
     kinetic-energy cutoff     =      60.0000  Ry
     charge density cutoff     =     480.0000  Ry
     scf convergence threshold =      1.0E-06
     mixing beta               =       0.7000
     number of iterations used =            8  plain     mixing
     Exchange-correlation= VDW-DF2-B86R
                           (   1   4  26   0   2   0   0)

     celldm(1)=   5.697334  celldm(2)=   0.000000  celldm(3)=   0.000000
     celldm(4)=   0.000000  celldm(5)=   0.000000  celldm(6)=   0.000000

     crystal axes: (cart. coord. in units of alat)
               a(1) = (   0.999994  -0.003591   0.000000 )  
               a(2) = (   0.503167   0.875437   0.000000 )  
               a(3) = (   0.000000   0.000000   3.958265 )  

     reciprocal axes: (cart. coord. in units 2 pi/alat)
               b(1) = (  0.997946 -0.573581  0.000000 )  
               b(2) = (  0.004094  1.139933  0.000000 )  
               b(3) = (  0.000000  0.000000  0.252636 )  


     PseudoPot. # 1 for B  read from file:
     /home/krojas/QE/pseudo/b_pbe_v1.4.uspp.F.UPF
     MD5 check sum: cc6de2960df11db49a60e589f9ebb39b
     Pseudo is Ultrasoft + core correction, Zval =  3.0
     Generated by new atomic code, or converted to UPF format
     Using radial grid of  781 points,  4 beta functions with: 
                l(1) =   0
                l(2) =   0
                l(3) =   1
                l(4) =   1
     Q(r) pseudized with  8 coefficients,  rinner =    1.100   1.100   1.100


     PseudoPot. # 2 for H  read from file:
     /home/krojas/QE/pseudo/h_pbe_v1.4.uspp.F.UPF
     MD5 check sum: 761ae9a214b05c3daf00ab9f6b793d6f
     Pseudo is Ultrasoft, Zval =  1.0
     Generated by new atomic code, or converted to UPF format
     Using radial grid of  615 points,  2 beta functions with: 
                l(1) =   0
                l(2) =   0
     Q(r) pseudized with  8 coefficients,  rinner =    0.700

     atomic species   valence    mass     pseudopotential
        B              3.00    10.81000     B ( 1.00)
        H              1.00     1.00800     H ( 1.00)

     No symmetry found



   Cartesian axes

     site n.     atom                  positions (alat units)
         1           B   tau(   1) = (   0.0000000   0.0000000   1.9791325  )
         2           B   tau(   2) = (   0.5009657   0.2715580   1.9791325  )
         3           H   tau(   3) = (   0.5020846   0.5735104   2.2998349  )
         4           H   tau(   4) = (   0.5054015   0.5735104   1.6584302  )

     number of k points=    74  Gaussian smearing, width (Ry)=  0.0100
                       cart. coord. in units 2pi/alat
        k(    1) = (   0.0000000   0.0000000   0.0000000), wk =   0.0138889
        k(    2) = (   0.0003412   0.0949944   0.0000000), wk =   0.0277778
        k(    3) = (   0.0006823   0.1899889   0.0000000), wk =   0.0277778
        k(    4) = (   0.0010235   0.2849833   0.0000000), wk =   0.0277778
        k(    5) = (   0.0013646   0.3799777   0.0000000), wk =   0.0277778
        k(    6) = (   0.0017058   0.4749722   0.0000000), wk =   0.0277778
        k(    7) = (  -0.0020470  -0.5699666   0.0000000), wk =   0.0138889
        k(    8) = (   0.0831622  -0.0477984   0.0000000), wk =   0.0277778
        k(    9) = (   0.0835034   0.0471960   0.0000000), wk =   0.0277778
        k(   10) = (   0.0838445   0.1421905   0.0000000), wk =   0.0277778
        k(   11) = (   0.0841857   0.2371849   0.0000000), wk =   0.0277778
        k(   12) = (   0.0845269   0.3321793   0.0000000), wk =   0.0277778
        k(   13) = (   0.0848680   0.4271738   0.0000000), wk =   0.0277778
        k(   14) = (   0.0811152  -0.6177650   0.0000000), wk =   0.0277778
        k(   15) = (   0.0814564  -0.5227706   0.0000000), wk =   0.0277778
        k(   16) = (   0.0817976  -0.4277762   0.0000000), wk =   0.0277778
        k(   17) = (   0.0821387  -0.3327817   0.0000000), wk =   0.0277778
        k(   18) = (   0.0824799  -0.2377873   0.0000000), wk =   0.0277778
        k(   19) = (   0.0828210  -0.1427928   0.0000000), wk =   0.0277778
        k(   20) = (   0.1663244  -0.0955968   0.0000000), wk =   0.0277778
        k(   21) = (   0.1666656  -0.0006024   0.0000000), wk =   0.0277778
        k(   22) = (   0.1670067   0.0943921   0.0000000), wk =   0.0277778
        k(   23) = (   0.1673479   0.1893865   0.0000000), wk =   0.0277778
        k(   24) = (   0.1676891   0.2843809   0.0000000), wk =   0.0277778
        k(   25) = (   0.1680302   0.3793754   0.0000000), wk =   0.0277778
        k(   26) = (   0.1642774  -0.6655634   0.0000000), wk =   0.0277778
        k(   27) = (   0.1646186  -0.5705690   0.0000000), wk =   0.0277778
        k(   28) = (   0.1649598  -0.4755746   0.0000000), wk =   0.0277778
        k(   29) = (   0.1653009  -0.3805801   0.0000000), wk =   0.0277778
        k(   30) = (   0.1656421  -0.2855857   0.0000000), wk =   0.0277778
        k(   31) = (   0.1659833  -0.1905913   0.0000000), wk =   0.0277778
        k(   32) = (   0.2494866  -0.1433952   0.0000000), wk =   0.0277778
        k(   33) = (   0.2498278  -0.0484008   0.0000000), wk =   0.0277778
        k(   34) = (   0.2501689   0.0465936   0.0000000), wk =   0.0277778
        k(   35) = (   0.2505101   0.1415881   0.0000000), wk =   0.0277778
        k(   36) = (   0.2508513   0.2365825   0.0000000), wk =   0.0277778
        k(   37) = (   0.2511924   0.3315769   0.0000000), wk =   0.0277778
        k(   38) = (   0.2474397  -0.7133618   0.0000000), wk =   0.0277778
        k(   39) = (   0.2477808  -0.6183674   0.0000000), wk =   0.0277778
        k(   40) = (   0.2481220  -0.5233730   0.0000000), wk =   0.0277778
        k(   41) = (   0.2484631  -0.4283785   0.0000000), wk =   0.0277778
        k(   42) = (   0.2488043  -0.3333841   0.0000000), wk =   0.0277778
        k(   43) = (   0.2491455  -0.2383897   0.0000000), wk =   0.0277778
        k(   44) = (   0.3326488  -0.1911936   0.0000000), wk =   0.0277778
        k(   45) = (   0.3329900  -0.0961992   0.0000000), wk =   0.0277778
        k(   46) = (   0.3333312  -0.0012048   0.0000000), wk =   0.0277778
        k(   47) = (   0.3336723   0.0937897   0.0000000), wk =   0.0277778
        k(   48) = (   0.3340135   0.1887841   0.0000000), wk =   0.0277778
        k(   49) = (   0.3343546   0.2837785   0.0000000), wk =   0.0277778
        k(   50) = (   0.3306019  -0.7611603   0.0000000), wk =   0.0277778
        k(   51) = (   0.3309430  -0.6661658   0.0000000), wk =   0.0277778
        k(   52) = (   0.3312842  -0.5711714   0.0000000), wk =   0.0277778
        k(   53) = (   0.3316253  -0.4761769   0.0000000), wk =   0.0277778
        k(   54) = (   0.3319665  -0.3811825   0.0000000), wk =   0.0277778
        k(   55) = (   0.3323077  -0.2861881   0.0000000), wk =   0.0277778
        k(   56) = (   0.4158110  -0.2389921   0.0000000), wk =   0.0277778
        k(   57) = (   0.4161522  -0.1439976   0.0000000), wk =   0.0277778
        k(   58) = (   0.4164934  -0.0490032   0.0000000), wk =   0.0277778
        k(   59) = (   0.4168345   0.0459913   0.0000000), wk =   0.0277778
        k(   60) = (   0.4171757   0.1409857   0.0000000), wk =   0.0277778
        k(   61) = (   0.4175169   0.2359801   0.0000000), wk =   0.0277778
        k(   62) = (   0.4137641  -0.8089587   0.0000000), wk =   0.0277778
        k(   63) = (   0.4141052  -0.7139642   0.0000000), wk =   0.0277778
        k(   64) = (   0.4144464  -0.6189698   0.0000000), wk =   0.0277778
        k(   65) = (   0.4147876  -0.5239754   0.0000000), wk =   0.0277778
        k(   66) = (   0.4151287  -0.4289809   0.0000000), wk =   0.0277778
        k(   67) = (   0.4154699  -0.3339865   0.0000000), wk =   0.0277778
        k(   68) = (  -0.4989732   0.2867905   0.0000000), wk =   0.0138889
        k(   69) = (  -0.4986321   0.3817849   0.0000000), wk =   0.0277778
        k(   70) = (  -0.4982909   0.4767793   0.0000000), wk =   0.0277778
        k(   71) = (  -0.4979498   0.5717738   0.0000000), wk =   0.0277778
        k(   72) = (  -0.4976086   0.6667682   0.0000000), wk =   0.0277778
        k(   73) = (  -0.4972674   0.7617626   0.0000000), wk =   0.0277778
        k(   74) = (  -0.5010202  -0.2831762   0.0000000), wk =   0.0138889

     Dense  grid:   113933 G-vectors     FFT dimensions: (  40,  45, 160)

     Smooth grid:    40273 G-vectors     FFT dimensions: (  30,  30, 120)

     Estimated max dynamical RAM per process >      13.53 MB

     Estimated total dynamical RAM >     216.40 MB

     Initial potential from superposition of free atoms

     starting charge       7.9994, renormalised to       8.0000

     negative rho (up, down):  1.266E-05 0.000E+00


     %%%%%%%%%%%%%%%%%%%%%%%%%%%%%%%%%%%%%%%%%%%%%%%%%%%%%%%%%%%%%%%%%%%%%%%%
     %                                                                      %
     % You are using vdW-DF, which was implemented by the Thonhauser group. %
     % Please cite the following two papers that made this development      %
     % possible and the two reviews that describe the various versions:     %
     %                                                                      %
     %   T. Thonhauser et al., PRL 115, 136402 (2015).                      %
     %   T. Thonhauser et al., PRB 76, 125112 (2007).                       %
     %   K. Berland et al., Rep. Prog. Phys. 78, 066501 (2015).             %
     %   D.C. Langreth et al., J. Phys.: Condens. Matter 21, 084203 (2009). %
     %                                                                      %
     % If you are calculating stress with vdW-DF, please also cite:         %
     %                                                                      %
     %   R. Sabatini et al., J. Phys.: Condens. Matter 24, 424209 (2012).   %
     %                                                                      %
     %%%%%%%%%%%%%%%%%%%%%%%%%%%%%%%%%%%%%%%%%%%%%%%%%%%%%%%%%%%%%%%%%%%%%%%%

     %%%%%%%%%%%%%%%%%%%%%%%%%%%%%%%%%%%%%%%%%%%%%%%%%%%%%%%%%%%%%%%%%%%%%%%%
     %                                                                      %
     %  vdW-DF NEWS:                                                        %
     %                                                                      %
     %  * vdW-DF3 is now available. DOI: 10.1021/acs.jctc.0c00471           %
     %    use with input_dft = 'vdW-DF3-opt1' or 'vdW-DF3-opt2'             %
     %                                                                      %
     %  * Unscreened and range-separated hybrid vdW-DF-cx functionals       %
     %    DOI: 10.1063/1.4986522 and 10.1088/1361-648X/ac2ad2               %
     %    use with input_dft = 'vdW-DF-cx0'    and 'vdW-DF-ahcx'            %
     %  * Unscreened and range-separated hybrid vdW-DF2-b86r functionals    %
     %    DOI: 10.1063/1.4986522 and DOI: 10.1103/PhysRevX.12.041003        %
     %    use with input_dft = 'vdW-DF2-br0' and 'vdW-DF2-ahbr'             %
     %                                                                      %
     %%%%%%%%%%%%%%%%%%%%%%%%%%%%%%%%%%%%%%%%%%%%%%%%%%%%%%%%%%%%%%%%%%%%%%%%


 
     Adding external electric field

     Computed dipole along edir(3) : 
        Dipole               -0.0000 Ry au,         -0.0000 Debye
        Dipole field         -0.0000 Ry au, 
 
        Potential amp.        0.0000 Ry
        Total length         22.5493 bohr
 
     Starting wfcs are   10 randomized atomic wfcs

     total cpu time spent up to now is       14.3 secs

     Self-consistent Calculation

     iteration #  1     ecut=    60.00 Ry     beta= 0.70
     Davidson diagonalization with overlap
     ethr =  1.00E-02,  avg # of iterations =  3.8

     negative rho (up, down):  1.272E-05 0.000E+00
 
     Adding external electric field

     Computed dipole along edir(3) : 
        Dipole               -0.0002 Ry au,         -0.0004 Debye
        Dipole field         -0.0000 Ry au, 
 
        Potential amp.        0.0001 Ry
        Total length         22.5493 bohr
 

     total cpu time spent up to now is       15.1 secs

     total energy              =     -15.04549910 Ry
     estimated scf accuracy    <       0.32926457 Ry

     iteration #  2     ecut=    60.00 Ry     beta= 0.70
     Davidson diagonalization with overlap
     ethr =  4.12E-03,  avg # of iterations =  3.8

     negative rho (up, down):  2.187E-05 0.000E+00
 
     Adding external electric field

     Computed dipole along edir(3) : 
        Dipole                0.0002 Ry au,          0.0005 Debye
        Dipole field          0.0000 Ry au, 
 
        Potential amp.       -0.0002 Ry
        Total length         22.5493 bohr
 

     total cpu time spent up to now is       15.8 secs

     total energy              =     -15.10083421 Ry
     estimated scf accuracy    <       0.01901311 Ry

     iteration #  3     ecut=    60.00 Ry     beta= 0.70
     Davidson diagonalization with overlap
     ethr =  2.38E-04,  avg # of iterations =  5.2

     negative rho (up, down):  3.110E-05 0.000E+00
 
     Adding external electric field

     Computed dipole along edir(3) : 
        Dipole               -0.0005 Ry au,         -0.0013 Debye
        Dipole field         -0.0000 Ry au, 
 
        Potential amp.        0.0005 Ry
        Total length         22.5493 bohr
 

     total cpu time spent up to now is       16.5 secs

     total energy              =     -15.10419179 Ry
     estimated scf accuracy    <       0.00059137 Ry

     iteration #  4     ecut=    60.00 Ry     beta= 0.70
     Davidson diagonalization with overlap
     ethr =  7.39E-06,  avg # of iterations =  5.5

     negative rho (up, down):  3.290E-05 0.000E+00
 
     Adding external electric field

     Computed dipole along edir(3) : 
        Dipole                0.0013 Ry au,          0.0033 Debye
        Dipole field          0.0000 Ry au, 
 
        Potential amp.       -0.0011 Ry
        Total length         22.5493 bohr
 

     total cpu time spent up to now is       17.3 secs

     total energy              =     -15.10428422 Ry
     estimated scf accuracy    <       0.00000760 Ry

     iteration #  5     ecut=    60.00 Ry     beta= 0.70
     Davidson diagonalization with overlap
     ethr =  9.50E-08,  avg # of iterations =  2.7

     negative rho (up, down):  3.326E-05 0.000E+00
 
     Adding external electric field

     Computed dipole along edir(3) : 
        Dipole               -0.0009 Ry au,         -0.0022 Debye
        Dipole field         -0.0000 Ry au, 
 
        Potential amp.        0.0008 Ry
        Total length         22.5493 bohr
 

     total cpu time spent up to now is       18.0 secs

     total energy              =     -15.10428638 Ry
     estimated scf accuracy    <       0.00000297 Ry

     iteration #  6     ecut=    60.00 Ry     beta= 0.70
     Davidson diagonalization with overlap
     ethr =  3.72E-08,  avg # of iterations =  1.9

     negative rho (up, down):  3.345E-05 0.000E+00
 
     Adding external electric field

     Computed dipole along edir(3) : 
        Dipole                0.0000 Ry au,          0.0001 Debye
        Dipole field          0.0000 Ry au, 
 
        Potential amp.       -0.0000 Ry
        Total length         22.5493 bohr
 

     total cpu time spent up to now is       18.5 secs

     total energy              =     -15.10428713 Ry
     estimated scf accuracy    <       0.00000130 Ry

     iteration #  7     ecut=    60.00 Ry     beta= 0.70
     Davidson diagonalization with overlap
     ethr =  1.62E-08,  avg # of iterations =  1.6

     negative rho (up, down):  3.353E-05 0.000E+00
 
     Adding external electric field

     Computed dipole along edir(3) : 
        Dipole               -0.0001 Ry au,         -0.0002 Debye
        Dipole field         -0.0000 Ry au, 
 
        Potential amp.        0.0001 Ry
        Total length         22.5493 bohr
 

     total cpu time spent up to now is       19.0 secs

     End of self-consistent calculation

          k = 0.0000 0.0000 0.0000 (  5017 PWs)   bands (ev):

   -14.5317  -8.8544  -3.0964  -0.6484   0.5635   1.9353   2.9055   5.5966

          k = 0.0003 0.0950 0.0000 (  4979 PWs)   bands (ev):

   -14.4330  -8.7368  -3.4832  -0.8948   0.6863   2.0763   3.0333   5.7050

          k = 0.0007 0.1900 0.0000 (  4988 PWs)   bands (ev):

   -14.1420  -8.3890  -4.4716  -1.4606   1.0701   2.4814   3.4239   3.9685

          k = 0.0010 0.2850 0.0000 (  5020 PWs)   bands (ev):

   -13.6768  -7.8309  -5.7390  -2.0760   1.7178   1.9062   3.2998   4.0496

          k = 0.0014 0.3800 0.0000 (  5038 PWs)   bands (ev):

   -13.0837  -7.1138  -7.0177  -2.5823   0.1870   2.5847   4.2669   4.6378

          k = 0.0017 0.4750 0.0000 (  5038 PWs)   bands (ev):

   -12.4870  -8.0633  -6.3819  -2.9062  -1.1723   3.4615   4.9194   5.5256

          k =-0.0020-0.5700 0.0000 (  5036 PWs)   bands (ev):

   -12.1968  -8.5087  -6.0190  -3.0171  -1.7470   3.7913   5.6273   6.1141

          k = 0.0832-0.0478 0.0000 (  5007 PWs)   bands (ev):

   -14.4332  -8.7537  -3.3737  -1.0352   0.6993   2.0763   3.0472   5.6658

          k = 0.0835 0.0472 0.0000 (  5007 PWs)   bands (ev):

   -14.4332  -8.7537  -3.3738  -1.0351   0.6993   2.0763   3.0473   5.6663

          k = 0.0838 0.1422 0.0000 (  5003 PWs)   bands (ev):

   -14.2386  -8.5226  -4.0646  -1.4390   0.9526   2.3512   3.3080   4.8513

          k = 0.0842 0.2372 0.0000 (  5010 PWs)   bands (ev):

   -13.8605  -8.0726  -5.1621  -2.0771   1.4738   2.6230   3.2035   3.8342

          k = 0.0845 0.3322 0.0000 (  5029 PWs)   bands (ev):

   -13.3286  -7.4368  -6.3981  -2.6973   1.0244   2.2491   3.8468   4.5682

          k = 0.0849 0.4272 0.0000 (  5030 PWs)   bands (ev):

   -12.7191  -7.5469  -6.7024  -3.1537  -0.5022   3.2043   4.9567   5.1300

          k = 0.0811-0.6178 0.0000 (  5055 PWs)   bands (ev):

   -12.2355  -8.3195  -6.1116  -3.3905  -1.4991   3.9992   5.5591   6.2860

          k = 0.0815-0.5228 0.0000 (  5055 PWs)   bands (ev):

   -12.2355  -8.3195  -6.1116  -3.3905  -1.4991   3.9992   5.5592   6.2857

          k = 0.0818-0.4278 0.0000 (  5030 PWs)   bands (ev):

   -12.7191  -7.5469  -6.7024  -3.1537  -0.5022   3.2043   4.9568   5.1300

          k = 0.0821-0.3328 0.0000 (  5029 PWs)   bands (ev):

   -13.3285  -7.4368  -6.3980  -2.6973   1.0244   2.2492   3.8468   4.5681

          k = 0.0825-0.2378 0.0000 (  5010 PWs)   bands (ev):

   -13.8604  -8.0726  -5.1620  -2.0772   1.4738   2.6231   3.2035   3.8343

          k = 0.0828-0.1428 0.0000 (  5003 PWs)   bands (ev):

   -14.2386  -8.5226  -4.0645  -1.4392   0.9527   2.3512   3.3080   4.8514

          k = 0.1663-0.0956 0.0000 (  5007 PWs)   bands (ev):

   -14.1440  -8.4615  -4.1288  -1.9015   1.1130   2.4878   3.4755   5.3177

          k = 0.1667-0.0006 0.0000 (  4991 PWs)   bands (ev):

   -14.2395  -8.5729  -3.7736  -1.8092   0.9844   2.3565   3.3437   5.9844

          k = 0.1670 0.0944 0.0000 (  5007 PWs)   bands (ev):

   -14.1441  -8.4615  -4.1290  -1.9011   1.1130   2.4878   3.4755   5.3175

          k = 0.1673 0.1894 0.0000 (  5031 PWs)   bands (ev):

   -13.8634  -8.1339  -4.9443  -2.3553   1.5035   2.7906   3.7094   3.8739

          k = 0.1677 0.2844 0.0000 (  5037 PWs)   bands (ev):

   -13.4182  -7.6139  -5.9407  -3.0816   1.7789   2.1603   3.7398   4.5422

          k = 0.1680 0.3794 0.0000 (  5046 PWs)   bands (ev):

   -12.8592  -6.9723  -6.9578  -3.7539   0.2985   3.0567   4.6642   5.4161

          k = 0.1643-0.6656 0.0000 (  5071 PWs)   bands (ev):

   -12.3132  -7.8379  -6.3209  -4.1894  -0.8644   4.0825   5.7926   6.1235

          k = 0.1646-0.5706 0.0000 (  5067 PWs)   bands (ev):

   -12.0573  -8.2088  -6.0211  -4.3369  -1.3423   4.6966   6.5085   6.8304

          k = 0.1650-0.4756 0.0000 (  5071 PWs)   bands (ev):

   -12.3131  -7.8379  -6.3209  -4.1894  -0.8644   4.0826   5.7927   6.1237

          k = 0.1653-0.3806 0.0000 (  5048 PWs)   bands (ev):

   -12.8592  -6.9722  -6.9579  -3.7540   0.2986   3.0568   4.6643   5.4161

          k = 0.1656-0.2856 0.0000 (  5037 PWs)   bands (ev):

   -13.4181  -7.6139  -5.9406  -3.0819   1.7791   2.1604   3.7399   4.5423

          k = 0.1660-0.1906 0.0000 (  5031 PWs)   bands (ev):

   -13.8634  -8.1339  -4.9440  -2.3557   1.5035   2.7907   3.7096   3.8739

          k = 0.2495-0.1434 0.0000 (  5031 PWs)   bands (ev):

   -13.6870  -8.0128  -5.2029  -2.7772   1.8064   2.9978   3.9862   4.1870

          k = 0.2498-0.0484 0.0000 (  5026 PWs)   bands (ev):

   -13.8661  -8.2146  -4.5801  -2.8090   1.5443   2.8948   3.9234   5.1364

          k = 0.2502 0.0466 0.0000 (  5026 PWs)   bands (ev):

   -13.8661  -8.2146  -4.5803  -2.8087   1.5442   2.8948   3.9233   5.1361

          k = 0.2505 0.1416 0.0000 (  5031 PWs)   bands (ev):

   -13.6870  -8.0128  -5.2033  -2.7766   1.8064   2.9976   3.9859   4.1867

          k = 0.2509 0.2366 0.0000 (  5038 PWs)   bands (ev):

   -13.3438  -7.6270  -5.9690  -3.2442   2.1816   2.3292   3.9573   4.7081

          k = 0.2512 0.3316 0.0000 (  5053 PWs)   bands (ev):

   -12.8749  -7.1023  -6.7016  -4.0699   0.9595   3.1061   4.6919   5.5125

          k = 0.2474-0.7134 0.0000 (  5056 PWs)   bands (ev):

   -12.3666  -7.3438  -6.5369  -4.8381  -0.0939   4.0832   5.5545   6.4674

          k = 0.2478-0.6184 0.0000 (  5062 PWs)   bands (ev):

   -11.9972  -7.7727  -6.1304  -5.2716  -0.7490   5.0250   5.9138   6.9662

          k = 0.2481-0.5234 0.0000 (  5062 PWs)   bands (ev):

   -11.9971  -7.7727  -6.1304  -5.2717  -0.7490   5.0251   5.9137   6.9663

          k = 0.2485-0.4284 0.0000 (  5056 PWs)   bands (ev):

   -12.3665  -7.3437  -6.5369  -4.8383  -0.0937   4.0833   5.5545   6.4675

          k = 0.2488-0.3334 0.0000 (  5053 PWs)   bands (ev):

   -12.8748  -7.1023  -6.7014  -4.0702   0.9598   3.1062   4.6920   5.5127

          k = 0.2491-0.2384 0.0000 (  5038 PWs)   bands (ev):

   -13.3438  -7.6270  -5.9686  -3.2447   2.1820   2.3293   3.9574   4.7081

          k = 0.3326-0.1912 0.0000 (  5036 PWs)   bands (ev):

   -13.1178  -7.4837  -6.3730  -3.4308   2.1855   2.7647   4.3999   4.7602

          k = 0.3330-0.0962 0.0000 (  5043 PWs)   bands (ev):

   -13.3496  -7.7282  -5.6734  -3.6099   2.3749   3.1678   4.0601   4.7816

          k = 0.3333-0.0012 0.0000 (  5043 PWs)   bands (ev):

   -13.4302  -7.8134  -5.2346  -3.9218   2.2425   3.5419   4.1849   4.6478

          k = 0.3337 0.0938 0.0000 (  5043 PWs)   bands (ev):

   -13.3497  -7.7282  -5.6738  -3.6093   2.3748   3.1675   4.0600   4.7816

          k = 0.3340 0.1888 0.0000 (  5036 PWs)   bands (ev):

   -13.1179  -7.4837  -6.3734  -3.4301   2.1850   2.7646   4.3998   4.7610

          k = 0.3344 0.2838 0.0000 (  5056 PWs)   bands (ev):

   -12.7681  -7.1179  -6.9548  -3.8876   1.2464   3.3984   5.0450   5.1374

          k = 0.3306-0.7612 0.0000 (  5051 PWs)   bands (ev):

   -12.3689  -7.3095  -6.6991  -4.7782   0.5078   4.2432   5.7193   6.3184

          k = 0.3309-0.6662 0.0000 (  5056 PWs)   bands (ev):

   -12.0354  -7.3841  -6.3508  -5.6717   0.0246   5.1267   5.4991   7.1197

          k = 0.3313-0.5712 0.0000 (  5049 PWs)   bands (ev):

   -11.9026  -7.3160  -6.2148  -6.0986  -0.1470   5.2366   5.5469   7.5031

          k = 0.3316-0.4762 0.0000 (  5056 PWs)   bands (ev):

   -12.0353  -7.3839  -6.3508  -5.6720   0.0248   5.1269   5.4989   7.1200

          k = 0.3320-0.3812 0.0000 (  5051 PWs)   bands (ev):

   -12.3688  -7.3092  -6.6991  -4.7787   0.5081   4.2434   5.7192   6.3174

          k = 0.3323-0.2862 0.0000 (  5056 PWs)   bands (ev):

   -12.7680  -7.1179  -6.9545  -3.8882   1.2468   3.3985   5.0451   5.1365

          k = 0.4158-0.2390 0.0000 (  5035 PWs)   bands (ev):

   -12.5713  -7.3435  -7.0173  -3.8213   1.2051   3.9300   4.5675   5.6262

          k = 0.4162-0.1440 0.0000 (  5059 PWs)   bands (ev):

   -12.7767  -7.2122  -6.7830  -4.0995   1.9288   3.4480   4.9620   5.1903

          k = 0.4165-0.0490 0.0000 (  5060 PWs)   bands (ev):

   -12.8946  -7.3223  -6.0954  -4.7610   2.7470   3.1925   4.3830   5.6360

          k = 0.4168 0.0460 0.0000 (  5060 PWs)   bands (ev):

   -12.8947  -7.3223  -6.0957  -4.7605   2.7467   3.1925   4.3831   5.6357

          k = 0.4172 0.1410 0.0000 (  5059 PWs)   bands (ev):

   -12.7768  -7.2122  -6.7835  -4.0988   1.9283   3.4479   4.9619   5.1912

          k = 0.4175 0.2360 0.0000 (  5035 PWs)   bands (ev):

   -12.5714  -7.3439  -7.0173  -3.8206   1.2046   3.9298   4.5683   5.6261

          k = 0.4138-0.8090 0.0000 (  5051 PWs)   bands (ev):

   -12.3391  -7.6004  -6.7933  -4.2381   0.7734   4.5589   5.0453   6.3372

          k = 0.4141-0.7140 0.0000 (  5056 PWs)   bands (ev):

   -12.1535  -7.4737  -6.6011  -5.1276   0.6519   5.0946   5.7508   6.2898

          k = 0.4144-0.6190 0.0000 (  5053 PWs)   bands (ev):

   -12.0586  -6.9596  -6.4931  -6.1075   0.7101   4.9370   5.2030   7.2583

          k = 0.4148-0.5240 0.0000 (  5053 PWs)   bands (ev):

   -12.0586  -6.9592  -6.4931  -6.1080   0.7102   4.9368   5.2031   7.2587

          k = 0.4151-0.4290 0.0000 (  5056 PWs)   bands (ev):

   -12.1534  -7.4734  -6.6011  -5.1281   0.6523   5.0947   5.7504   6.2889

          k = 0.4155-0.3340 0.0000 (  5051 PWs)   bands (ev):

   -12.3390  -7.6001  -6.7933  -4.2387   0.7739   4.5590   5.0445   6.3372

          k =-0.4990 0.2868 0.0000 (  5038 PWs)   bands (ev):

   -12.3210  -7.7437  -6.8234  -3.9508   0.8261   4.4823   4.8332   6.2540

          k =-0.4986 0.3818 0.0000 (  5049 PWs)   bands (ev):

   -12.3442  -7.5438  -6.8350  -4.3060   1.0079   4.6121   5.0290   6.1745

          k =-0.4983 0.4768 0.0000 (  5054 PWs)   bands (ev):

   -12.3890  -6.9935  -6.8563  -5.1293   1.4584   4.3224   5.1651   6.3689

          k =-0.4979 0.5718 0.0000 (  5075 PWs)   bands (ev):

   -12.4105  -6.8706  -6.3820  -5.8584   1.7646   4.2117   4.6292   6.6861

          k =-0.4976 0.6668 0.0000 (  5054 PWs)   bands (ev):

   -12.3890  -6.9940  -6.8563  -5.1287   1.4580   4.3223   5.1653   6.3697

          k =-0.4973 0.7618 0.0000 (  5049 PWs)   bands (ev):

   -12.3444  -7.5442  -6.8350  -4.3053   1.0074   4.6120   5.0299   6.1745

          k =-0.5010-0.2832 0.0000 (  5038 PWs)   bands (ev):

   -12.3211  -7.7440  -6.8234  -3.9502   0.8256   4.4832   4.8331   6.2536

     the Fermi energy is    -1.2492 ev

!    total energy              =     -15.10428735 Ry
     estimated scf accuracy    <          7.8E-09 Ry
     smearing contrib. (-TS)   =      -0.00015403 Ry
     internal energy E=F+TS    =     -15.10413331 Ry

     The total energy is F=E-TS. E is the sum of the following terms:
     one-electron contribution =     -65.62249235 Ry
     hartree contribution      =      34.37202983 Ry
     xc contribution           =      -7.33889507 Ry
     ewald contribution        =      23.48522428 Ry
     electric field correction =       0.00000000 Ry

     convergence has been achieved in   7 iterations

     negative rho (up, down):  3.353E-05 0.000E+00

     Forces acting on atoms (cartesian axes, Ry/au):

     atom    1 type  1   force =     0.00018740    0.00407660   -0.00001352
     atom    2 type  1   force =     0.00023333   -0.00404418   -0.00002071
     atom    3 type  2   force =     0.00015316   -0.00000990    0.00107820
     atom    4 type  2   force =    -0.00057388   -0.00002251   -0.00104397
     The non-local contrib.  to forces
     atom    1 type  1   force =    -0.00033985   -0.35200895   -0.00001072
     atom    2 type  1   force =     0.00228910    0.35206333   -0.00003055
     atom    3 type  2   force =     0.00005908    0.00000427   -0.11397575
     atom    4 type  2   force =    -0.00145000    0.00001354    0.11396139
     The ionic contribution  to forces
     atom    1 type  1   force =    -0.00197020    0.69533635   -0.00001622
     atom    2 type  1   force =    -0.00693320   -0.69518146   -0.00008465
     atom    3 type  2   force =    -0.00028615   -0.00004180    2.57657401
     atom    4 type  2   force =     0.00918955   -0.00011309   -2.57647315
     The local contribution  to forces
     atom    1 type  1   force =     0.00247085   -0.34694400    0.00005156
     atom    2 type  1   force =     0.00490839    0.34677028    0.00013146
     atom    3 type  2   force =     0.00038039    0.00002764   -2.46151391
     atom    4 type  2   force =    -0.00831335    0.00007714    2.46146639
     The core correction contribution to forces
     atom    1 type  1   force =     0.00002696    0.00767068   -0.00000036
     atom    2 type  1   force =    -0.00003103   -0.00767375    0.00000089
     atom    3 type  2   force =     0.00000000    0.00000000    0.00000000
     atom    4 type  2   force =     0.00000000    0.00000000    0.00000000
     The Hubbard contrib.    to forces
     atom    1 type  1   force =     0.00000000    0.00000000    0.00000000
     atom    2 type  1   force =     0.00000000    0.00000000    0.00000000
     atom    3 type  2   force =     0.00000000    0.00000000    0.00000000
     atom    4 type  2   force =     0.00000000    0.00000000    0.00000000
     The SCF correction term to forces
     atom    1 type  1   force =    -0.00000037    0.00002259   -0.00005370
     atom    2 type  1   force =     0.00000004   -0.00002250   -0.00005378
     atom    3 type  2   force =    -0.00000018    0.00000006   -0.00001618
     atom    4 type  2   force =    -0.00000010   -0.00000005   -0.00000863

     Total force =     0.005972     Total SCF correction =     0.000084

     Writing all to output data dir ./TMPDIR/pwscf.save/
 
     init_run     :     14.09s CPU     14.27s WALL (       1 calls)
     electrons    :      4.43s CPU      4.71s WALL (       1 calls)
     forces       :      0.19s CPU      0.20s WALL (       1 calls)

     Called by init_run:
     wfcinit      :      0.20s CPU      0.21s WALL (       1 calls)
     potinit      :     13.71s CPU     13.88s WALL (       1 calls)
     hinit0       :      0.15s CPU      0.16s WALL (       1 calls)

     Called by electrons:
     c_bands      :      3.42s CPU      3.58s WALL (       7 calls)
     sum_band     :      0.57s CPU      0.60s WALL (       7 calls)
     v_of_rho     :     14.02s CPU     14.23s WALL (       8 calls)
     newd         :      0.05s CPU      0.05s WALL (       8 calls)
     mix_rho      :      0.02s CPU      0.02s WALL (       7 calls)
     vdW_kernel   :     13.60s CPU     13.75s WALL (       1 calls)

     Called by c_bands:
     init_us_2    :      0.09s CPU      0.10s WALL (    1184 calls)
     init_us_2:cp :      0.09s CPU      0.09s WALL (    1184 calls)
     cegterg      :      3.25s CPU      3.41s WALL (     518 calls)

     Called by *egterg:
     cdiaghg      :      0.23s CPU      0.24s WALL (    2335 calls)
     h_psi        :      2.77s CPU      2.91s WALL (    2409 calls)
     s_psi        :      0.06s CPU      0.07s WALL (    2409 calls)
     g_psi        :      0.03s CPU      0.03s WALL (    1817 calls)

     Called by h_psi:
     h_psi:calbec :      0.12s CPU      0.12s WALL (    2409 calls)
     vloc_psi     :      2.57s CPU      2.68s WALL (    2409 calls)
     add_vuspsi   :      0.07s CPU      0.09s WALL (    2409 calls)

     General routines
     calbec       :      0.15s CPU      0.16s WALL (    3223 calls)
     fft          :      0.28s CPU      0.30s WALL (     563 calls)
     ffts         :      0.00s CPU      0.00s WALL (      15 calls)
     fftw         :      2.60s CPU      2.70s WALL (   29324 calls)
     interpolate  :      0.00s CPU      0.00s WALL (       8 calls)
 
     Parallel routines
 
     PWSCF        :     18.86s CPU     19.91s WALL

 
   This run was terminated on:  18:26:41  12Mar2024            

=------------------------------------------------------------------------------=
   JOB DONE.
=------------------------------------------------------------------------------=
