
     Program PWSCF v.7.2 starts on  8Nov2023 at 17:16:38 

     This program is part of the open-source Quantum ESPRESSO suite
     for quantum simulation of materials; please cite
         "P. Giannozzi et al., J. Phys.:Condens. Matter 21 395502 (2009);
         "P. Giannozzi et al., J. Phys.:Condens. Matter 29 465901 (2017);
         "P. Giannozzi et al., J. Chem. Phys. 152 154105 (2020);
          URL http://www.quantum-espresso.org", 
     in publications or presentations arising from this work. More details at
     http://www.quantum-espresso.org/quote

     Parallel version (MPI), running on     4 processors

     MPI processes distributed on     1 nodes
     9296 MiB available memory on the printing compute node when the environment starts
 
     Reading input from espresso.pwi
Warning: card &CELL ignored
Warning: card / ignored

     Current dimensions of program PWSCF are:
     Max number of different atomic species (ntypx) = 10
     Max number of k-points (npk) =  40000
     Max angular momentum in pseudopotentials (lmaxx) =  4
     Presently no symmetry can be used with electric field

 
     R & G space division:  proc/nbgrp/npool/nimage =       4
     Subspace diagonalization in iterative solution of the eigenvalue problem:
     a serial algorithm will be used

 
     Parallelization info
     --------------------
     sticks:   dense  smooth     PW     G-vecs:    dense   smooth      PW
     Min        7666    3832    958              1011072   357408   44730
     Max        7670    3833    959              1011073   357411   44733
     Sum       30669   15329   3833              4044289  1429635  178925
 
     Using Slab Decomposition
 


     bravais-lattice index     =            0
     lattice parameter (alat)  =      28.3459  a.u.
     unit-cell volume          =   22775.6289 (a.u.)^3
     number of atoms/cell      =            3
     number of atomic types    =            2
     number of electrons       =         8.00
     number of Kohn-Sham states=            8
     kinetic-energy cutoff     =      60.0000  Ry
     charge density cutoff     =     480.0000  Ry
     scf convergence threshold =      1.0E-07
     mixing beta               =       0.7000
     number of iterations used =            8  plain     mixing
     Exchange-correlation=  SLA  PW   PBX  PBC
                           (   1   4   3   4   0   0   0)

     celldm(1)=  28.345892  celldm(2)=   0.000000  celldm(3)=   0.000000
     celldm(4)=   0.000000  celldm(5)=   0.000000  celldm(6)=   0.000000

     crystal axes: (cart. coord. in units of alat)
               a(1) = (   1.000000   0.000000   0.000000 )  
               a(2) = (   0.000000   1.000000   0.000000 )  
               a(3) = (   0.000000   0.000000   1.000000 )  

     reciprocal axes: (cart. coord. in units 2 pi/alat)
               b(1) = (  1.000000  0.000000  0.000000 )  
               b(2) = (  0.000000  1.000000  0.000000 )  
               b(3) = (  0.000000  0.000000  1.000000 )  


     PseudoPot. # 1 for O  read from file:
     /home/krojas/github_files/MatSciToolKit/tutorial/example_ase_ir_2/ir_1/o_pbe_v1.2.uspp.F.UPF
     MD5 check sum: 734c27235a0248c51dbae37a1fbe46ec
     Pseudo is Ultrasoft + core correction, Zval =  6.0
     Generated by new atomic code, or converted to UPF format
     Using radial grid of  737 points,  5 beta functions with: 
                l(1) =   0
                l(2) =   0
                l(3) =   1
                l(4) =   1
                l(5) =   2
     Q(r) pseudized with  8 coefficients,  rinner =    0.900   0.900   0.900
                                                       0.900   0.900

     PseudoPot. # 2 for H  read from file:
     /home/krojas/github_files/MatSciToolKit/tutorial/example_ase_ir_2/ir_1/h_pbe_v1.4.uspp.F.UPF
     MD5 check sum: 761ae9a214b05c3daf00ab9f6b793d6f
     Pseudo is Ultrasoft, Zval =  1.0
     Generated by new atomic code, or converted to UPF format
     Using radial grid of  615 points,  2 beta functions with: 
                l(1) =   0
                l(2) =   0
     Q(r) pseudized with  8 coefficients,  rinner =    0.700

     atomic species   valence    mass     pseudopotential
        O              6.00    15.99900     O ( 1.00)
        H              1.00     1.00800     H ( 1.00)

     No symmetry found



   Cartesian axes

     site n.     atom                  positions (alat units)
         1           O   tau(   1) = (   0.5000000   0.5000000   0.5201804  )
         2           H   tau(   2) = (   0.5000000   0.5506813   0.4798196  )
         3           H   tau(   3) = (   0.5000000   0.4486521   0.4798196  )

     number of k points=     1  Gaussian smearing, width (Ry)=  0.0100
                       cart. coord. in units 2pi/alat
        k(    1) = (   0.0000000   0.0000000   0.0000000), wk =   2.0000000

     Dense  grid:  4044289 G-vectors     FFT dimensions: ( 200, 200, 200)

     Smooth grid:  1429635 G-vectors     FFT dimensions: ( 144, 144, 144)

     Estimated max dynamical RAM per process >       2.25 GB

     Estimated total dynamical RAM >       9.02 GB

     Initial potential from superposition of free atoms

     starting charge       8.0000, renormalised to       8.0000

     negative rho (up, down):  5.060E-04 0.000E+00
 
     Adding external electric field

     Computed dipole along edir(3) : 
        Dipole               -0.0000 Ry au,         -0.0000 Debye
        Dipole field         -0.0000 Ry au, 
 
        Potential amp.        0.0000 Ry
        Total length         28.3431 bohr
 
     Starting wfcs are    6 randomized atomic wfcs +    2 random wfcs

     total cpu time spent up to now is        8.0 secs

     per-process dynamical memory:   488.9 Mb

     Self-consistent Calculation

     iteration #  1     ecut=    60.00 Ry     beta= 0.70
     Davidson diagonalization with overlap
     ethr =  1.00E-02,  avg # of iterations =  8.0

     negative rho (up, down):  1.825E-03 0.000E+00
 
     Adding external electric field

     Computed dipole along edir(3) : 
        Dipole               -0.7969 Ry au,         -2.0255 Debye
        Dipole field         -0.0004 Ry au, 
 
        Potential amp.        0.0249 Ry
        Total length         28.3431 bohr
 

     total cpu time spent up to now is       18.8 secs

     total energy              =     -34.47266551 Ry
     estimated scf accuracy    <       0.45992063 Ry

     iteration #  2     ecut=    60.00 Ry     beta= 0.70
     Davidson diagonalization with overlap
     ethr =  5.75E-03,  avg # of iterations =  2.0

     negative rho (up, down):  2.094E-03 0.000E+00
 
     Adding external electric field

     Computed dipole along edir(3) : 
        Dipole               -0.5829 Ry au,         -1.4816 Debye
        Dipole field         -0.0003 Ry au, 
 
        Potential amp.        0.0182 Ry
        Total length         28.3431 bohr
 

     total cpu time spent up to now is       28.3 secs

     total energy              =     -34.58651878 Ry
     estimated scf accuracy    <       0.44943713 Ry

     iteration #  3     ecut=    60.00 Ry     beta= 0.70
     Davidson diagonalization with overlap
     ethr =  5.62E-03,  avg # of iterations =  2.0

     negative rho (up, down):  2.378E-03 0.000E+00
 
     Adding external electric field

     Computed dipole along edir(3) : 
        Dipole               -0.7066 Ry au,         -1.7961 Debye
        Dipole field         -0.0004 Ry au, 
 
        Potential amp.        0.0221 Ry
        Total length         28.3431 bohr
 

     total cpu time spent up to now is       38.0 secs

     total energy              =     -34.66614595 Ry
     estimated scf accuracy    <       0.00372801 Ry

     iteration #  4     ecut=    60.00 Ry     beta= 0.70
     Davidson diagonalization with overlap
     ethr =  4.66E-05,  avg # of iterations =  8.0

     negative rho (up, down):  2.371E-03 0.000E+00
 
     Adding external electric field

     Computed dipole along edir(3) : 
        Dipole               -0.7048 Ry au,         -1.7913 Debye
        Dipole field         -0.0004 Ry au, 
 
        Potential amp.        0.0220 Ry
        Total length         28.3431 bohr
 

     total cpu time spent up to now is       49.4 secs

     total energy              =     -34.66715575 Ry
     estimated scf accuracy    <       0.00177552 Ry

     iteration #  5     ecut=    60.00 Ry     beta= 0.70
     Davidson diagonalization with overlap
     ethr =  2.22E-05,  avg # of iterations =  1.0

     negative rho (up, down):  2.412E-03 0.000E+00
 
     Adding external electric field

     Computed dipole along edir(3) : 
        Dipole               -0.7185 Ry au,         -1.8263 Debye
        Dipole field         -0.0004 Ry au, 
 
        Potential amp.        0.0225 Ry
        Total length         28.3431 bohr
 

     total cpu time spent up to now is       58.9 secs

     total energy              =     -34.66700484 Ry
     estimated scf accuracy    <       0.00035847 Ry

     iteration #  6     ecut=    60.00 Ry     beta= 0.70
     Davidson diagonalization with overlap
     ethr =  4.48E-06,  avg # of iterations = 16.0

     negative rho (up, down):  2.408E-03 0.000E+00
 
     Adding external electric field

     Computed dipole along edir(3) : 
        Dipole               -0.7111 Ry au,         -1.8074 Debye
        Dipole field         -0.0004 Ry au, 
 
        Potential amp.        0.0222 Ry
        Total length         28.3431 bohr
 

     total cpu time spent up to now is       70.0 secs

     total energy              =     -34.66712546 Ry
     estimated scf accuracy    <       0.00012247 Ry

     iteration #  7     ecut=    60.00 Ry     beta= 0.70
     Davidson diagonalization with overlap
     ethr =  1.53E-06,  avg # of iterations =  5.0

     negative rho (up, down):  2.415E-03 0.000E+00
 
     Adding external electric field

     Computed dipole along edir(3) : 
        Dipole               -0.7107 Ry au,         -1.8063 Debye
        Dipole field         -0.0004 Ry au, 
 
        Potential amp.        0.0222 Ry
        Total length         28.3431 bohr
 

     total cpu time spent up to now is       79.9 secs

     total energy              =     -34.66714581 Ry
     estimated scf accuracy    <       0.00000076 Ry

     iteration #  8     ecut=    60.00 Ry     beta= 0.70
     Davidson diagonalization with overlap
     ethr =  9.48E-09,  avg # of iterations =  2.0

     negative rho (up, down):  2.416E-03 0.000E+00
 
     Adding external electric field

     Computed dipole along edir(3) : 
        Dipole               -0.7106 Ry au,         -1.8060 Debye
        Dipole field         -0.0004 Ry au, 
 
        Potential amp.        0.0222 Ry
        Total length         28.3431 bohr
 

     total cpu time spent up to now is       89.4 secs

     total energy              =     -34.66714592 Ry
     estimated scf accuracy    <       0.00000016 Ry

     iteration #  9     ecut=    60.00 Ry     beta= 0.70
     Davidson diagonalization with overlap
     ethr =  2.05E-09,  avg # of iterations =  2.0

     negative rho (up, down):  2.417E-03 0.000E+00
 
     Adding external electric field

     Computed dipole along edir(3) : 
        Dipole               -0.7106 Ry au,         -1.8061 Debye
        Dipole field         -0.0004 Ry au, 
 
        Potential amp.        0.0222 Ry
        Total length         28.3431 bohr
 

     total cpu time spent up to now is       98.6 secs

     End of self-consistent calculation

          k = 0.0000 0.0000 0.0000 (178925 PWs)   bands (ev):

   -25.1830 -12.9544  -9.3278  -7.1979  -0.9952  -0.1146   0.2369   0.3604

     the Fermi energy is    -5.3451 ev

!    total energy              =     -34.66714594 Ry
     estimated scf accuracy    <          7.7E-09 Ry
     smearing contrib. (-TS)   =      -0.00000000 Ry
     internal energy E=F+TS    =     -34.66714594 Ry

     The total energy is F=E-TS. E is the sum of the following terms:
     one-electron contribution =     -69.53538704 Ry
     hartree contribution      =      36.24262854 Ry
     xc contribution           =      -8.68519791 Ry
     ewald contribution        =       7.31053189 Ry
     electric field correction =       0.00027858 Ry

     convergence has been achieved in   9 iterations

     negative rho (up, down):  2.417E-03 0.000E+00

     Forces acting on atoms (cartesian axes, Ry/au):

     atom    1 type  1   force =     0.00000118   -0.01284095    0.00780401
     atom    2 type  2   force =     0.00000028    0.01404347   -0.00900888
     atom    3 type  2   force =    -0.00000145   -0.00120252    0.00120488
     The non-local contrib.  to forces
     atom    1 type  1   force =     0.00000334   -0.00259190   -2.18271500
     atom    2 type  2   force =     0.00000000   -0.19877295    0.14663681
     atom    3 type  2   force =    -0.00000050    0.19512290    0.14181128
     The ionic contribution  to forces
     atom    1 type  1   force =    -0.00000000   -0.03060960    4.37511727
     atom    2 type  2   force =     0.00000000    3.01806726   -2.21396016
     atom    3 type  2   force =    -0.00000000   -2.98745767   -2.16115711
     The local contribution  to forces
     atom    1 type  1   force =     0.00000651    0.02023699   -2.20103058
     atom    2 type  2   force =     0.00000053   -2.80525055    2.05751315
     atom    3 type  2   force =    -0.00000093    2.79113120    2.01974894
     The core correction contribution to forces
     atom    1 type  1   force =    -0.00000001    0.00012199    0.01152629
     atom    2 type  2   force =     0.00000000    0.00000000    0.00000000
     atom    3 type  2   force =     0.00000000    0.00000000    0.00000000
     The Hubbard contrib.    to forces
     atom    1 type  1   force =     0.00000000    0.00000000    0.00000000
     atom    2 type  2   force =     0.00000000    0.00000000    0.00000000
     atom    3 type  2   force =     0.00000000    0.00000000    0.00000000
     The SCF correction term to forces
     atom    1 type  1   force =    -0.00000909    0.00000162    0.00019239
     atom    2 type  2   force =    -0.00000069   -0.00000024    0.00000821
     atom    3 type  2   force =    -0.00000046    0.00000110    0.00000868

     Total force =     0.022518     Total SCF correction =     0.000193

     Writing all to output data dir tmpdir/pwscf.save/
 
     init_run     :      6.50s CPU      7.91s WALL (       1 calls)
     electrons    :     75.70s CPU     90.78s WALL (       1 calls)
     forces       :      4.12s CPU      5.06s WALL (       1 calls)

     Called by init_run:
     wfcinit      :      0.41s CPU      0.45s WALL (       1 calls)
     potinit      :      1.82s CPU      2.13s WALL (       1 calls)
     hinit0       :      0.45s CPU      0.55s WALL (       1 calls)

     Called by electrons:
     c_bands      :     13.12s CPU     14.29s WALL (       9 calls)
     sum_band     :     29.54s CPU     34.56s WALL (       9 calls)
     v_of_rho     :     13.23s CPU     15.72s WALL (      10 calls)
     newd         :     17.62s CPU     24.51s WALL (      10 calls)
     mix_rho      :      3.71s CPU      4.05s WALL (       9 calls)

     Called by c_bands:
     init_us_2    :      0.17s CPU      0.18s WALL (      19 calls)
     init_us_2:cp :      0.17s CPU      0.18s WALL (      19 calls)
     cegterg      :     12.79s CPU     13.95s WALL (       9 calls)

     Called by *egterg:
     cdiaghg      :      0.01s CPU      0.01s WALL (      55 calls)
     h_psi        :     11.60s CPU     12.77s WALL (      56 calls)
     s_psi        :      0.17s CPU      0.18s WALL (      56 calls)
     g_psi        :      0.03s CPU      0.04s WALL (      46 calls)

     Called by h_psi:
     h_psi:calbec :      0.20s CPU      0.21s WALL (      56 calls)
     vloc_psi     :     11.15s CPU     12.29s WALL (      56 calls)
     add_vuspsi   :      0.19s CPU      0.19s WALL (      56 calls)

     General routines
     calbec       :      0.26s CPU      0.28s WALL (      69 calls)
     fft          :     11.94s CPU     15.11s WALL (     139 calls)
     ffts         :      0.58s CPU      0.70s WALL (      19 calls)
     fftw         :      8.63s CPU      9.79s WALL (     566 calls)
     interpolate  :      1.29s CPU      1.54s WALL (      10 calls)
 
     Parallel routines
 
     PWSCF        :   1m26.46s CPU   1m44.06s WALL

 
   This run was terminated on:  17:18:22   8Nov2023            

=------------------------------------------------------------------------------=
   JOB DONE.
=------------------------------------------------------------------------------=
