[0] MPI startup(): I_MPI_TCP_NETMASK variable has been removed from the product, its value is ignored


     Program PWSCF v.7.2 starts on 12Mar2024 at 18:25: 0 

     This program is part of the open-source Quantum ESPRESSO suite
     for quantum simulation of materials; please cite
         "P. Giannozzi et al., J. Phys.:Condens. Matter 21 395502 (2009);
         "P. Giannozzi et al., J. Phys.:Condens. Matter 29 465901 (2017);
         "P. Giannozzi et al., J. Chem. Phys. 152 154105 (2020);
          URL http://www.quantum-espresso.org", 
     in publications or presentations arising from this work. More details at
     http://www.quantum-espresso.org/quote

     Parallel version (MPI), running on    16 processors

     MPI processes distributed on     1 nodes
     43295 MiB available memory on the printing compute node when the environment starts
 
     Reading input from espresso.pwi
Warning: card &CELL ignored
Warning: card / ignored

     Current dimensions of program PWSCF are:
     Max number of different atomic species (ntypx) = 10
     Max number of k-points (npk) =  40000
     Max angular momentum in pseudopotentials (lmaxx) =  4
     Presently no symmetry can be used with electric field


     IMPORTANT: XC functional enforced from input :
     Exchange-correlation= VDW-DF2-B86R
                           (   1   4  26   0   2   0   0)
     Any further DFT definition will be discarded
     Please, verify this is what you really want

 
     R & G space division:  proc/nbgrp/npool/nimage =      16
     Subspace diagonalization in iterative solution of the eigenvalue problem:
     a serial algorithm will be used

 
     Parallelization info
     --------------------
     sticks:   dense  smooth     PW     G-vecs:    dense   smooth      PW
     Min          67      34     10                 7115     2515     444
     Max          68      36     11                 7126     2519     463
     Sum        1085     551    167               113933    40273    7201
 
     Using Slab Decomposition
 


     bravais-lattice index     =            0
     lattice parameter (alat)  =       5.6973  a.u.
     unit-cell volume          =     642.1518 (a.u.)^3
     number of atoms/cell      =            4
     number of atomic types    =            2
     number of electrons       =         8.00
     number of Kohn-Sham states=            8
     kinetic-energy cutoff     =      60.0000  Ry
     charge density cutoff     =     480.0000  Ry
     scf convergence threshold =      1.0E-06
     mixing beta               =       0.7000
     number of iterations used =            8  plain     mixing
     Exchange-correlation= VDW-DF2-B86R
                           (   1   4  26   0   2   0   0)

     celldm(1)=   5.697334  celldm(2)=   0.000000  celldm(3)=   0.000000
     celldm(4)=   0.000000  celldm(5)=   0.000000  celldm(6)=   0.000000

     crystal axes: (cart. coord. in units of alat)
               a(1) = (   0.999994  -0.003591   0.000000 )  
               a(2) = (   0.503167   0.875437   0.000000 )  
               a(3) = (   0.000000   0.000000   3.958265 )  

     reciprocal axes: (cart. coord. in units 2 pi/alat)
               b(1) = (  0.997946 -0.573581  0.000000 )  
               b(2) = (  0.004094  1.139933  0.000000 )  
               b(3) = (  0.000000  0.000000  0.252636 )  


     PseudoPot. # 1 for B  read from file:
     /home/krojas/QE/pseudo/b_pbe_v1.4.uspp.F.UPF
     MD5 check sum: cc6de2960df11db49a60e589f9ebb39b
     Pseudo is Ultrasoft + core correction, Zval =  3.0
     Generated by new atomic code, or converted to UPF format
     Using radial grid of  781 points,  4 beta functions with: 
                l(1) =   0
                l(2) =   0
                l(3) =   1
                l(4) =   1
     Q(r) pseudized with  8 coefficients,  rinner =    1.100   1.100   1.100


     PseudoPot. # 2 for H  read from file:
     /home/krojas/QE/pseudo/h_pbe_v1.4.uspp.F.UPF
     MD5 check sum: 761ae9a214b05c3daf00ab9f6b793d6f
     Pseudo is Ultrasoft, Zval =  1.0
     Generated by new atomic code, or converted to UPF format
     Using radial grid of  615 points,  2 beta functions with: 
                l(1) =   0
                l(2) =   0
     Q(r) pseudized with  8 coefficients,  rinner =    0.700

     atomic species   valence    mass     pseudopotential
        B              3.00    10.81000     B ( 1.00)
        H              1.00     1.00800     H ( 1.00)

     No symmetry found



   Cartesian axes

     site n.     atom                  positions (alat units)
         1           B   tau(   1) = (   0.0000000   0.0000000   1.9791325  )
         2           B   tau(   2) = (   0.5042825   0.2715580   1.9791325  )
         3           H   tau(   3) = (   0.5020846   0.5735104   2.2998349  )
         4           H   tau(   4) = (   0.5020846   0.5735104   1.6584302  )

     number of k points=    74  Gaussian smearing, width (Ry)=  0.0100
                       cart. coord. in units 2pi/alat
        k(    1) = (   0.0000000   0.0000000   0.0000000), wk =   0.0138889
        k(    2) = (   0.0003412   0.0949944   0.0000000), wk =   0.0277778
        k(    3) = (   0.0006823   0.1899889   0.0000000), wk =   0.0277778
        k(    4) = (   0.0010235   0.2849833   0.0000000), wk =   0.0277778
        k(    5) = (   0.0013646   0.3799777   0.0000000), wk =   0.0277778
        k(    6) = (   0.0017058   0.4749722   0.0000000), wk =   0.0277778
        k(    7) = (  -0.0020470  -0.5699666   0.0000000), wk =   0.0138889
        k(    8) = (   0.0831622  -0.0477984   0.0000000), wk =   0.0277778
        k(    9) = (   0.0835034   0.0471960   0.0000000), wk =   0.0277778
        k(   10) = (   0.0838445   0.1421905   0.0000000), wk =   0.0277778
        k(   11) = (   0.0841857   0.2371849   0.0000000), wk =   0.0277778
        k(   12) = (   0.0845269   0.3321793   0.0000000), wk =   0.0277778
        k(   13) = (   0.0848680   0.4271738   0.0000000), wk =   0.0277778
        k(   14) = (   0.0811152  -0.6177650   0.0000000), wk =   0.0277778
        k(   15) = (   0.0814564  -0.5227706   0.0000000), wk =   0.0277778
        k(   16) = (   0.0817976  -0.4277762   0.0000000), wk =   0.0277778
        k(   17) = (   0.0821387  -0.3327817   0.0000000), wk =   0.0277778
        k(   18) = (   0.0824799  -0.2377873   0.0000000), wk =   0.0277778
        k(   19) = (   0.0828210  -0.1427928   0.0000000), wk =   0.0277778
        k(   20) = (   0.1663244  -0.0955968   0.0000000), wk =   0.0277778
        k(   21) = (   0.1666656  -0.0006024   0.0000000), wk =   0.0277778
        k(   22) = (   0.1670067   0.0943921   0.0000000), wk =   0.0277778
        k(   23) = (   0.1673479   0.1893865   0.0000000), wk =   0.0277778
        k(   24) = (   0.1676891   0.2843809   0.0000000), wk =   0.0277778
        k(   25) = (   0.1680302   0.3793754   0.0000000), wk =   0.0277778
        k(   26) = (   0.1642774  -0.6655634   0.0000000), wk =   0.0277778
        k(   27) = (   0.1646186  -0.5705690   0.0000000), wk =   0.0277778
        k(   28) = (   0.1649598  -0.4755746   0.0000000), wk =   0.0277778
        k(   29) = (   0.1653009  -0.3805801   0.0000000), wk =   0.0277778
        k(   30) = (   0.1656421  -0.2855857   0.0000000), wk =   0.0277778
        k(   31) = (   0.1659833  -0.1905913   0.0000000), wk =   0.0277778
        k(   32) = (   0.2494866  -0.1433952   0.0000000), wk =   0.0277778
        k(   33) = (   0.2498278  -0.0484008   0.0000000), wk =   0.0277778
        k(   34) = (   0.2501689   0.0465936   0.0000000), wk =   0.0277778
        k(   35) = (   0.2505101   0.1415881   0.0000000), wk =   0.0277778
        k(   36) = (   0.2508513   0.2365825   0.0000000), wk =   0.0277778
        k(   37) = (   0.2511924   0.3315769   0.0000000), wk =   0.0277778
        k(   38) = (   0.2474397  -0.7133618   0.0000000), wk =   0.0277778
        k(   39) = (   0.2477808  -0.6183674   0.0000000), wk =   0.0277778
        k(   40) = (   0.2481220  -0.5233730   0.0000000), wk =   0.0277778
        k(   41) = (   0.2484631  -0.4283785   0.0000000), wk =   0.0277778
        k(   42) = (   0.2488043  -0.3333841   0.0000000), wk =   0.0277778
        k(   43) = (   0.2491455  -0.2383897   0.0000000), wk =   0.0277778
        k(   44) = (   0.3326488  -0.1911936   0.0000000), wk =   0.0277778
        k(   45) = (   0.3329900  -0.0961992   0.0000000), wk =   0.0277778
        k(   46) = (   0.3333312  -0.0012048   0.0000000), wk =   0.0277778
        k(   47) = (   0.3336723   0.0937897   0.0000000), wk =   0.0277778
        k(   48) = (   0.3340135   0.1887841   0.0000000), wk =   0.0277778
        k(   49) = (   0.3343546   0.2837785   0.0000000), wk =   0.0277778
        k(   50) = (   0.3306019  -0.7611603   0.0000000), wk =   0.0277778
        k(   51) = (   0.3309430  -0.6661658   0.0000000), wk =   0.0277778
        k(   52) = (   0.3312842  -0.5711714   0.0000000), wk =   0.0277778
        k(   53) = (   0.3316253  -0.4761769   0.0000000), wk =   0.0277778
        k(   54) = (   0.3319665  -0.3811825   0.0000000), wk =   0.0277778
        k(   55) = (   0.3323077  -0.2861881   0.0000000), wk =   0.0277778
        k(   56) = (   0.4158110  -0.2389921   0.0000000), wk =   0.0277778
        k(   57) = (   0.4161522  -0.1439976   0.0000000), wk =   0.0277778
        k(   58) = (   0.4164934  -0.0490032   0.0000000), wk =   0.0277778
        k(   59) = (   0.4168345   0.0459913   0.0000000), wk =   0.0277778
        k(   60) = (   0.4171757   0.1409857   0.0000000), wk =   0.0277778
        k(   61) = (   0.4175169   0.2359801   0.0000000), wk =   0.0277778
        k(   62) = (   0.4137641  -0.8089587   0.0000000), wk =   0.0277778
        k(   63) = (   0.4141052  -0.7139642   0.0000000), wk =   0.0277778
        k(   64) = (   0.4144464  -0.6189698   0.0000000), wk =   0.0277778
        k(   65) = (   0.4147876  -0.5239754   0.0000000), wk =   0.0277778
        k(   66) = (   0.4151287  -0.4289809   0.0000000), wk =   0.0277778
        k(   67) = (   0.4154699  -0.3339865   0.0000000), wk =   0.0277778
        k(   68) = (  -0.4989732   0.2867905   0.0000000), wk =   0.0138889
        k(   69) = (  -0.4986321   0.3817849   0.0000000), wk =   0.0277778
        k(   70) = (  -0.4982909   0.4767793   0.0000000), wk =   0.0277778
        k(   71) = (  -0.4979498   0.5717738   0.0000000), wk =   0.0277778
        k(   72) = (  -0.4976086   0.6667682   0.0000000), wk =   0.0277778
        k(   73) = (  -0.4972674   0.7617626   0.0000000), wk =   0.0277778
        k(   74) = (  -0.5010202  -0.2831762   0.0000000), wk =   0.0138889

     Dense  grid:   113933 G-vectors     FFT dimensions: (  40,  45, 160)

     Smooth grid:    40273 G-vectors     FFT dimensions: (  30,  30, 120)

     Estimated max dynamical RAM per process >      13.53 MB

     Estimated total dynamical RAM >     216.40 MB

     Initial potential from superposition of free atoms

     starting charge       7.9994, renormalised to       8.0000

     negative rho (up, down):  1.264E-05 0.000E+00


     %%%%%%%%%%%%%%%%%%%%%%%%%%%%%%%%%%%%%%%%%%%%%%%%%%%%%%%%%%%%%%%%%%%%%%%%
     %                                                                      %
     % You are using vdW-DF, which was implemented by the Thonhauser group. %
     % Please cite the following two papers that made this development      %
     % possible and the two reviews that describe the various versions:     %
     %                                                                      %
     %   T. Thonhauser et al., PRL 115, 136402 (2015).                      %
     %   T. Thonhauser et al., PRB 76, 125112 (2007).                       %
     %   K. Berland et al., Rep. Prog. Phys. 78, 066501 (2015).             %
     %   D.C. Langreth et al., J. Phys.: Condens. Matter 21, 084203 (2009). %
     %                                                                      %
     % If you are calculating stress with vdW-DF, please also cite:         %
     %                                                                      %
     %   R. Sabatini et al., J. Phys.: Condens. Matter 24, 424209 (2012).   %
     %                                                                      %
     %%%%%%%%%%%%%%%%%%%%%%%%%%%%%%%%%%%%%%%%%%%%%%%%%%%%%%%%%%%%%%%%%%%%%%%%

     %%%%%%%%%%%%%%%%%%%%%%%%%%%%%%%%%%%%%%%%%%%%%%%%%%%%%%%%%%%%%%%%%%%%%%%%
     %                                                                      %
     %  vdW-DF NEWS:                                                        %
     %                                                                      %
     %  * vdW-DF3 is now available. DOI: 10.1021/acs.jctc.0c00471           %
     %    use with input_dft = 'vdW-DF3-opt1' or 'vdW-DF3-opt2'             %
     %                                                                      %
     %  * Unscreened and range-separated hybrid vdW-DF-cx functionals       %
     %    DOI: 10.1063/1.4986522 and 10.1088/1361-648X/ac2ad2               %
     %    use with input_dft = 'vdW-DF-cx0'    and 'vdW-DF-ahcx'            %
     %  * Unscreened and range-separated hybrid vdW-DF2-b86r functionals    %
     %    DOI: 10.1063/1.4986522 and DOI: 10.1103/PhysRevX.12.041003        %
     %    use with input_dft = 'vdW-DF2-br0' and 'vdW-DF2-ahbr'             %
     %                                                                      %
     %%%%%%%%%%%%%%%%%%%%%%%%%%%%%%%%%%%%%%%%%%%%%%%%%%%%%%%%%%%%%%%%%%%%%%%%


 
     Adding external electric field

     Computed dipole along edir(3) : 
        Dipole               -0.0000 Ry au,         -0.0000 Debye
        Dipole field         -0.0000 Ry au, 
 
        Potential amp.        0.0000 Ry
        Total length         22.5493 bohr
 
     Starting wfcs are   10 randomized atomic wfcs

     total cpu time spent up to now is       14.3 secs

     Self-consistent Calculation

     iteration #  1     ecut=    60.00 Ry     beta= 0.70
     Davidson diagonalization with overlap
     ethr =  1.00E-02,  avg # of iterations =  3.8

     negative rho (up, down):  1.268E-05 0.000E+00
 
     Adding external electric field

     Computed dipole along edir(3) : 
        Dipole               -0.0001 Ry au,         -0.0003 Debye
        Dipole field         -0.0000 Ry au, 
 
        Potential amp.        0.0001 Ry
        Total length         22.5493 bohr
 

     total cpu time spent up to now is       15.1 secs

     total energy              =     -15.04542859 Ry
     estimated scf accuracy    <       0.32925163 Ry

     iteration #  2     ecut=    60.00 Ry     beta= 0.70
     Davidson diagonalization with overlap
     ethr =  4.12E-03,  avg # of iterations =  3.8

     negative rho (up, down):  2.180E-05 0.000E+00
 
     Adding external electric field

     Computed dipole along edir(3) : 
        Dipole                0.0001 Ry au,          0.0002 Debye
        Dipole field          0.0000 Ry au, 
 
        Potential amp.       -0.0001 Ry
        Total length         22.5493 bohr
 

     total cpu time spent up to now is       15.8 secs

     total energy              =     -15.10075948 Ry
     estimated scf accuracy    <       0.01901350 Ry

     iteration #  3     ecut=    60.00 Ry     beta= 0.70
     Davidson diagonalization with overlap
     ethr =  2.38E-04,  avg # of iterations =  4.9

     negative rho (up, down):  3.101E-05 0.000E+00
 
     Adding external electric field

     Computed dipole along edir(3) : 
        Dipole               -0.0002 Ry au,         -0.0006 Debye
        Dipole field         -0.0000 Ry au, 
 
        Potential amp.        0.0002 Ry
        Total length         22.5493 bohr
 

     total cpu time spent up to now is       16.5 secs

     total energy              =     -15.10411947 Ry
     estimated scf accuracy    <       0.00059251 Ry

     iteration #  4     ecut=    60.00 Ry     beta= 0.70
     Davidson diagonalization with overlap
     ethr =  7.41E-06,  avg # of iterations =  5.6

     negative rho (up, down):  3.285E-05 0.000E+00
 
     Adding external electric field

     Computed dipole along edir(3) : 
        Dipole                0.0006 Ry au,          0.0015 Debye
        Dipole field          0.0000 Ry au, 
 
        Potential amp.       -0.0005 Ry
        Total length         22.5493 bohr
 

     total cpu time spent up to now is       17.3 secs

     total energy              =     -15.10421231 Ry
     estimated scf accuracy    <       0.00000740 Ry

     iteration #  5     ecut=    60.00 Ry     beta= 0.70
     Davidson diagonalization with overlap
     ethr =  9.26E-08,  avg # of iterations =  2.8

     negative rho (up, down):  3.346E-05 0.000E+00
 
     Adding external electric field

     Computed dipole along edir(3) : 
        Dipole               -0.0019 Ry au,         -0.0048 Debye
        Dipole field         -0.0000 Ry au, 
 
        Potential amp.        0.0017 Ry
        Total length         22.5493 bohr
 

     total cpu time spent up to now is       17.9 secs

     End of self-consistent calculation

          k = 0.0000 0.0000 0.0000 (  5017 PWs)   bands (ev):

   -14.5336  -8.8567  -3.1000  -0.6451   0.5610   1.9316   2.9037   5.5909

          k = 0.0003 0.0950 0.0000 (  4979 PWs)   bands (ev):

   -14.4350  -8.7391  -3.4864  -0.8920   0.6838   2.0726   3.0315   5.7000

          k = 0.0007 0.1900 0.0000 (  4988 PWs)   bands (ev):

   -14.1441  -8.3913  -4.4741  -1.4587   1.0677   2.4777   3.4219   3.9667

          k = 0.0010 0.2850 0.0000 (  5020 PWs)   bands (ev):

   -13.6790  -7.8333  -5.7407  -2.0748   1.7155   1.9045   3.2962   4.0475

          k = 0.0014 0.3800 0.0000 (  5038 PWs)   bands (ev):

   -13.0861  -7.1163  -7.0190  -2.5815   0.1855   2.5825   4.2632   4.6349

          k = 0.0017 0.4750 0.0000 (  5038 PWs)   bands (ev):

   -12.4897  -8.0640  -6.3847  -2.9057  -1.1735   3.4594   4.9167   5.5221

          k =-0.0020-0.5700 0.0000 (  5036 PWs)   bands (ev):

   -12.1998  -8.5091  -6.0220  -3.0167  -1.7480   3.7891   5.6245   6.1122

          k = 0.0832-0.0478 0.0000 (  5007 PWs)   bands (ev):

   -14.4352  -8.7557  -3.3855  -1.0202   0.6967   2.0728   3.0453   5.6995

          k = 0.0835 0.0472 0.0000 (  5007 PWs)   bands (ev):

   -14.4352  -8.7563  -3.3688  -1.0444   0.6970   2.0725   3.0455   5.6272

          k = 0.0838 0.1422 0.0000 (  5003 PWs)   bands (ev):

   -14.2406  -8.5259  -4.0512  -1.4600   0.9504   2.3471   3.3060   4.8646

          k = 0.0842 0.2372 0.0000 (  5010 PWs)   bands (ev):

   -13.8625  -8.0766  -5.1506  -2.0946   1.4712   2.6268   3.2066   3.8313

          k = 0.0845 0.3322 0.0000 (  5029 PWs)   bands (ev):

   -13.3309  -7.4415  -6.3910  -2.7081   1.0327   2.2460   3.8423   4.5631

          k = 0.0849 0.4272 0.0000 (  5030 PWs)   bands (ev):

   -12.7218  -7.5433  -6.7074  -3.1591  -0.4965   3.2002   4.9515   5.1246

          k = 0.0811-0.6178 0.0000 (  5055 PWs)   bands (ev):

   -12.2385  -8.3185  -6.1157  -3.3920  -1.4973   3.9947   5.5610   6.2802

          k = 0.0815-0.5228 0.0000 (  5055 PWs)   bands (ev):

   -12.2382  -8.3215  -6.1132  -3.3884  -1.5029   3.9995   5.5518   6.2852

          k = 0.0818-0.4278 0.0000 (  5030 PWs)   bands (ev):

   -12.7215  -7.5524  -6.7027  -3.1471  -0.5106   3.2041   4.9550   5.1296

          k = 0.0821-0.3328 0.0000 (  5029 PWs)   bands (ev):

   -13.3308  -7.4371  -6.4081  -2.6848   1.0128   2.2478   3.8440   4.5684

          k = 0.0825-0.2378 0.0000 (  5010 PWs)   bands (ev):

   -13.8626  -8.0733  -5.1775  -2.0572   1.4717   2.6141   3.1949   3.8331

          k = 0.0828-0.1428 0.0000 (  5003 PWs)   bands (ev):

   -14.2407  -8.5240  -4.0831  -1.4143   0.9501   2.3478   3.3062   4.8348

          k = 0.1663-0.0956 0.0000 (  5007 PWs)   bands (ev):

   -14.1461  -8.4625  -4.1564  -1.8655   1.1103   2.4847   3.4735   5.2899

          k = 0.1667-0.0006 0.0000 (  4991 PWs)   bands (ev):

   -14.2415  -8.5752  -3.7769  -1.8068   0.9820   2.3528   3.3418   5.9803

          k = 0.1670 0.0944 0.0000 (  5007 PWs)   bands (ev):

   -14.1460  -8.4652  -4.1063  -1.9340   1.1109   2.4836   3.4738   5.3431

          k = 0.1673 0.1894 0.0000 (  5031 PWs)   bands (ev):

   -13.8655  -8.1390  -4.9166  -2.3945   1.5012   2.7895   3.7314   3.8712

          k = 0.1677 0.2844 0.0000 (  5037 PWs)   bands (ev):

   -13.4205  -7.6203  -5.9184  -3.1122   1.7993   2.1575   3.7361   4.5381

          k = 0.1680 0.3794 0.0000 (  5046 PWs)   bands (ev):

   -12.8620  -6.9677  -6.9557  -3.7728   0.3150   3.0531   4.6576   5.4095

          k = 0.1643-0.6656 0.0000 (  5071 PWs)   bands (ev):

   -12.3164  -7.8313  -6.3277  -4.1980  -0.8549   4.0774   5.7834   6.1228

          k = 0.1646-0.5706 0.0000 (  5067 PWs)   bands (ev):

   -12.0603  -8.2093  -6.0239  -4.3368  -1.3433   4.6946   6.5059   6.8280

          k = 0.1650-0.4756 0.0000 (  5071 PWs)   bands (ev):

   -12.3155  -7.8460  -6.3197  -4.1803  -0.8763   4.0835   5.7960   6.1185

          k = 0.1653-0.3806 0.0000 (  5048 PWs)   bands (ev):

   -12.8614  -6.9863  -6.9582  -3.7342   0.2793   3.0561   4.6640   5.4175

          k = 0.1656-0.2856 0.0000 (  5037 PWs)   bands (ev):

   -13.4203  -7.6124  -5.9660  -3.0500   1.7555   2.1586   3.7365   4.5421

          k = 0.1660-0.1906 0.0000 (  5031 PWs)   bands (ev):

   -13.8655  -8.1336  -4.9754  -2.3146   1.5010   2.7851   3.6837   3.8726

          k = 0.2495-0.1434 0.0000 (  5031 PWs)   bands (ev):

   -13.6891  -8.0120  -5.2395  -2.7296   1.8036   2.9905   3.9531   4.1852

          k = 0.2498-0.0484 0.0000 (  5026 PWs)   bands (ev):

   -13.8682  -8.2159  -4.6025  -2.7826   1.5416   2.8918   3.9213   5.1104

          k = 0.2502 0.0466 0.0000 (  5026 PWs)   bands (ev):

   -13.8682  -8.2181  -4.5629  -2.8324   1.5421   2.8907   3.9216   5.1595

          k = 0.2505 0.1416 0.0000 (  5031 PWs)   bands (ev):

   -13.6892  -8.0185  -5.1697  -2.8233   1.8045   2.9986   4.0154   4.1844

          k = 0.2509 0.2366 0.0000 (  5038 PWs)   bands (ev):

   -13.3462  -7.6347  -5.9346  -3.2912   2.2113   2.3268   3.9576   4.7025

          k = 0.2512 0.3316 0.0000 (  5053 PWs)   bands (ev):

   -12.8778  -7.1114  -6.6716  -4.1085   0.9891   3.1031   4.6853   5.5057

          k = 0.2474-0.7134 0.0000 (  5056 PWs)   bands (ev):

   -12.3701  -7.3225  -6.5464  -4.8637  -0.0721   4.0792   5.5405   6.4617

          k = 0.2478-0.6184 0.0000 (  5062 PWs)   bands (ev):

   -12.0006  -7.7654  -6.1361  -5.2807  -0.7413   5.0206   5.9038   6.9781

          k = 0.2481-0.5234 0.0000 (  5062 PWs)   bands (ev):

   -11.9996  -7.7814  -6.1298  -5.2629  -0.7589   5.0257   5.9209   6.9500

          k = 0.2485-0.4284 0.0000 (  5056 PWs)   bands (ev):

   -12.3685  -7.3665  -6.5329  -4.8126  -0.1179   4.0830   5.5631   6.4673

          k = 0.2488-0.3334 0.0000 (  5053 PWs)   bands (ev):

   -12.8768  -7.0978  -6.7339  -4.0313   0.9276   3.1047   4.6916   5.5144

          k = 0.2491-0.2384 0.0000 (  5038 PWs)   bands (ev):

   -13.3459  -7.6241  -6.0053  -3.1974   2.1495   2.3268   3.9504   4.7094

          k = 0.3326-0.1912 0.0000 (  5036 PWs)   bands (ev):

   -13.1198  -7.4800  -6.4094  -3.3826   2.1483   2.7617   4.3909   4.7839

          k = 0.3330-0.0962 0.0000 (  5043 PWs)   bands (ev):

   -13.3518  -7.7274  -5.7066  -3.5695   2.3720   3.1474   4.0413   4.7791

          k = 0.3333-0.0012 0.0000 (  5043 PWs)   bands (ev):

   -13.4324  -7.8158  -5.2374  -3.9203   2.2402   3.5385   4.1834   4.6458

          k = 0.3337 0.0938 0.0000 (  5043 PWs)   bands (ev):

   -13.3520  -7.7337  -5.6433  -3.6493   2.3731   3.1835   4.0738   4.7807

          k = 0.3340 0.1888 0.0000 (  5036 PWs)   bands (ev):

   -13.1205  -7.4922  -6.3390  -3.4784   2.2197   2.7630   4.4021   4.7333

          k = 0.3344 0.2838 0.0000 (  5056 PWs)   bands (ev):

   -12.7713  -7.1276  -6.9215  -3.9343   1.2854   3.3960   5.0412   5.1041

          k = 0.3306-0.7612 0.0000 (  5051 PWs)   bands (ev):

   -12.3727  -7.2750  -6.7113  -4.8197   0.5431   4.2398   5.7024   6.2773

          k = 0.3309-0.6662 0.0000 (  5056 PWs)   bands (ev):

   -12.0394  -7.3557  -6.3598  -5.7036   0.0463   5.1227   5.4799   7.1284

          k = 0.3313-0.5712 0.0000 (  5049 PWs)   bands (ev):

   -11.9055  -7.3172  -6.2136  -6.1021  -0.1481   5.2367   5.5439   7.5004

          k = 0.3316-0.4762 0.0000 (  5056 PWs)   bands (ev):

   -12.0371  -7.4131  -6.3470  -5.6410   0.0010   5.1276   5.5151   7.1056

          k = 0.3320-0.3812 0.0000 (  5051 PWs)   bands (ev):

   -12.3703  -7.3438  -6.6931  -4.7378   0.4706   4.2425   5.7306   6.3545

          k = 0.3323-0.2862 0.0000 (  5056 PWs)   bands (ev):

   -12.7698  -7.1107  -6.9919  -3.8419   1.2055   3.3964   5.0419   5.1663

          k = 0.4158-0.2390 0.0000 (  5035 PWs)   bands (ev):

   -12.5727  -7.3767  -7.0114  -3.7755   1.1606   3.9271   4.5895   5.6206

          k = 0.4162-0.1440 0.0000 (  5059 PWs)   bands (ev):

   -12.7786  -7.2080  -6.8175  -4.0570   1.8905   3.4448   4.9560   5.2137

          k = 0.4165-0.0490 0.0000 (  5060 PWs)   bands (ev):

   -12.8968  -7.3225  -6.1224  -4.7318   2.7252   3.1899   4.3829   5.6334

          k = 0.4168 0.0460 0.0000 (  5060 PWs)   bands (ev):

   -12.8972  -7.3269  -6.0722  -4.7888   2.7661   3.1906   4.3773   5.6340

          k = 0.4172 0.1410 0.0000 (  5059 PWs)   bands (ev):

   -12.7798  -7.2205  -6.7516  -4.1417   1.9646   3.4468   4.9614   5.1643

          k = 0.4175 0.2360 0.0000 (  5035 PWs)   bands (ev):

   -12.5751  -7.3099  -7.0304  -3.8668   1.2472   3.9284   4.5426   5.6250

          k = 0.4138-0.8090 0.0000 (  5051 PWs)   bands (ev):

   -12.3434  -7.5664  -6.8071  -4.2824   0.8167   4.5537   5.0202   6.3266

          k = 0.4141-0.7140 0.0000 (  5056 PWs)   bands (ev):

   -12.1578  -7.4389  -6.6128  -5.1683   0.6875   5.0908   5.7258   6.2599

          k = 0.4144-0.6190 0.0000 (  5053 PWs)   bands (ev):

   -12.0621  -6.9244  -6.4992  -6.1451   0.7244   4.9261   5.1996   7.2599

          k = 0.4148-0.5240 0.0000 (  5053 PWs)   bands (ev):

   -12.0608  -6.9940  -6.4925  -6.0722   0.6937   4.9475   5.2005   7.2517

          k = 0.4151-0.4290 0.0000 (  5056 PWs)   bands (ev):

   -12.1546  -7.5080  -6.5956  -5.0883   0.6147   5.0949   5.7721   6.3152

          k = 0.4155-0.3340 0.0000 (  5051 PWs)   bands (ev):

   -12.3401  -7.6341  -6.7858  -4.1950   0.7287   4.5599   5.0661   6.3418

          k =-0.4990 0.2868 0.0000 (  5038 PWs)   bands (ev):

   -12.3219  -7.7767  -6.8154  -3.9062   0.7792   4.5038   4.8302   6.2466

          k =-0.4986 0.3818 0.0000 (  5049 PWs)   bands (ev):

   -12.3454  -7.5769  -6.8286  -4.2635   0.9640   4.6095   5.0521   6.1750

          k =-0.4983 0.4768 0.0000 (  5054 PWs)   bands (ev):

   -12.3908  -7.0249  -6.8558  -5.0916   1.4262   4.3199   5.1753   6.3941

          k =-0.4979 0.5718 0.0000 (  5075 PWs)   bands (ev):

   -12.4131  -6.8726  -6.3861  -5.8559   1.7633   4.2099   4.6273   6.6802

          k =-0.4976 0.6668 0.0000 (  5054 PWs)   bands (ev):

   -12.3924  -6.9593  -6.8667  -5.1670   1.4882   4.3208   5.1510   6.3410

          k =-0.4973 0.7618 0.0000 (  5049 PWs)   bands (ev):

   -12.3485  -7.5109  -6.8478  -4.3484   1.0495   4.6105   5.0034   6.1683

          k =-0.5010-0.2832 0.0000 (  5038 PWs)   bands (ev):

   -12.3256  -7.7109  -6.8377  -3.9953   0.8708   4.4580   4.8322   6.2557

     the Fermi energy is    -1.2487 ev

!    total energy              =     -15.10421475 Ry
     estimated scf accuracy    <       0.00000100 Ry
     smearing contrib. (-TS)   =      -0.00015637 Ry
     internal energy E=F+TS    =     -15.10405838 Ry

     The total energy is F=E-TS. E is the sum of the following terms:
     one-electron contribution =     -65.62261612 Ry
     hartree contribution      =      34.37198968 Ry
     xc contribution           =      -7.33893885 Ry
     ewald contribution        =      23.48550684 Ry
     electric field correction =       0.00000007 Ry

     convergence has been achieved in   5 iterations

     negative rho (up, down):  3.346E-05 0.000E+00

     Forces acting on atoms (cartesian axes, Ry/au):

     atom    1 type  1   force =     0.00781829    0.00391272    0.00003620
     atom    2 type  1   force =    -0.00823142   -0.00387890    0.00003674
     atom    3 type  2   force =     0.00020642   -0.00001688    0.00102320
     atom    4 type  2   force =     0.00020670   -0.00001694   -0.00109614
     The non-local contrib.  to forces
     atom    1 type  1   force =     0.00963844   -0.35215820   -0.00010653
     atom    2 type  1   force =    -0.01155072    0.35221846   -0.00010522
     atom    3 type  2   force =     0.00068076    0.00000586   -0.11395336
     atom    4 type  2   force =     0.00068086    0.00000585    0.11399689
     The ionic contribution  to forces
     atom    1 type  1   force =     0.02684861    0.69504650    0.00000000
     atom    2 type  1   force =    -0.01813573   -0.69491576    0.00000000
     atom    3 type  2   force =    -0.00435644   -0.00006537    2.57656314
     atom    4 type  2   force =    -0.00435644   -0.00006537   -2.57656314
     The local contribution  to forces
     atom    1 type  1   force =    -0.02829263   -0.34691362    0.00124130
     atom    2 type  1   force =     0.02107249    0.34675817    0.00124060
     atom    3 type  2   force =     0.00388215    0.00004082   -2.46135510
     atom    4 type  2   force =     0.00388147    0.00004067    2.46173028
     The core correction contribution to forces
     atom    1 type  1   force =    -0.00037621    0.00767617    0.00000805
     atom    2 type  1   force =     0.00038013   -0.00767914    0.00000794
     atom    3 type  2   force =     0.00000000    0.00000000    0.00000000
     atom    4 type  2   force =     0.00000000    0.00000000    0.00000000
     The Hubbard contrib.    to forces
     atom    1 type  1   force =     0.00000000    0.00000000    0.00000000
     atom    2 type  1   force =     0.00000000    0.00000000    0.00000000
     atom    3 type  2   force =     0.00000000    0.00000000    0.00000000
     atom    4 type  2   force =     0.00000000    0.00000000    0.00000000
     The SCF correction term to forces
     atom    1 type  1   force =    -0.00000062    0.00026119   -0.00128564
     atom    2 type  1   force =     0.00000172   -0.00026130   -0.00128561
     atom    3 type  2   force =    -0.00000074    0.00000114   -0.00026305
     atom    4 type  2   force =     0.00000011    0.00000124   -0.00029173

     Total force =     0.012711     Total SCF correction =     0.001896
     SCF correction compared to forces is large: reduce conv_thr to get better values

     Writing all to output data dir ./TMPDIR/pwscf.save/
 
     init_run     :     14.09s CPU     14.26s WALL (       1 calls)
     electrons    :      3.44s CPU      3.66s WALL (       1 calls)
     forces       :      0.19s CPU      0.19s WALL (       1 calls)

     Called by init_run:
     wfcinit      :      0.20s CPU      0.21s WALL (       1 calls)
     potinit      :     13.71s CPU     13.86s WALL (       1 calls)
     hinit0       :      0.15s CPU      0.15s WALL (       1 calls)

     Called by electrons:
     c_bands      :      2.69s CPU      2.81s WALL (       5 calls)
     sum_band     :      0.41s CPU      0.44s WALL (       5 calls)
     v_of_rho     :     13.93s CPU     14.09s WALL (       6 calls)
     newd         :      0.04s CPU      0.05s WALL (       6 calls)
     mix_rho      :      0.01s CPU      0.01s WALL (       5 calls)
     vdW_kernel   :     13.60s CPU     13.74s WALL (       1 calls)

     Called by c_bands:
     init_us_2    :      0.07s CPU      0.07s WALL (     888 calls)
     init_us_2:cp :      0.07s CPU      0.07s WALL (     888 calls)
     cegterg      :      2.57s CPU      2.69s WALL (     370 calls)

     Called by *egterg:
     cdiaghg      :      0.19s CPU      0.20s WALL (    1927 calls)
     h_psi        :      2.20s CPU      2.31s WALL (    2001 calls)
     s_psi        :      0.05s CPU      0.05s WALL (    2001 calls)
     g_psi        :      0.02s CPU      0.02s WALL (    1557 calls)

     Called by h_psi:
     h_psi:calbec :      0.10s CPU      0.10s WALL (    2001 calls)
     vloc_psi     :      2.03s CPU      2.13s WALL (    2001 calls)
     add_vuspsi   :      0.05s CPU      0.06s WALL (    2001 calls)

     General routines
     calbec       :      0.13s CPU      0.13s WALL (    2667 calls)
     fft          :      0.23s CPU      0.23s WALL (     437 calls)
     ffts         :      0.00s CPU      0.00s WALL (      11 calls)
     fftw         :      2.04s CPU      2.14s WALL (   23046 calls)
     interpolate  :      0.00s CPU      0.00s WALL (       6 calls)
 
     Parallel routines
 
     PWSCF        :     17.85s CPU     18.84s WALL

 
   This run was terminated on:  18:25:19  12Mar2024            

=------------------------------------------------------------------------------=
   JOB DONE.
=------------------------------------------------------------------------------=
