
     Program PWSCF v.7.2 starts on  8Nov2023 at 17:20: 7 

     This program is part of the open-source Quantum ESPRESSO suite
     for quantum simulation of materials; please cite
         "P. Giannozzi et al., J. Phys.:Condens. Matter 21 395502 (2009);
         "P. Giannozzi et al., J. Phys.:Condens. Matter 29 465901 (2017);
         "P. Giannozzi et al., J. Chem. Phys. 152 154105 (2020);
          URL http://www.quantum-espresso.org", 
     in publications or presentations arising from this work. More details at
     http://www.quantum-espresso.org/quote

     Parallel version (MPI), running on     4 processors

     MPI processes distributed on     1 nodes
     9293 MiB available memory on the printing compute node when the environment starts
 
     Reading input from espresso.pwi
Warning: card &CELL ignored
Warning: card / ignored

     Current dimensions of program PWSCF are:
     Max number of different atomic species (ntypx) = 10
     Max number of k-points (npk) =  40000
     Max angular momentum in pseudopotentials (lmaxx) =  4
     Presently no symmetry can be used with electric field

 
     R & G space division:  proc/nbgrp/npool/nimage =       4
     Subspace diagonalization in iterative solution of the eigenvalue problem:
     a serial algorithm will be used

 
     Parallelization info
     --------------------
     sticks:   dense  smooth     PW     G-vecs:    dense   smooth      PW
     Min        7666    3832    958              1011072   357408   44730
     Max        7670    3833    959              1011073   357411   44733
     Sum       30669   15329   3833              4044289  1429635  178925
 
     Using Slab Decomposition
 


     bravais-lattice index     =            0
     lattice parameter (alat)  =      28.3459  a.u.
     unit-cell volume          =   22775.6289 (a.u.)^3
     number of atoms/cell      =            3
     number of atomic types    =            2
     number of electrons       =         8.00
     number of Kohn-Sham states=            8
     kinetic-energy cutoff     =      60.0000  Ry
     charge density cutoff     =     480.0000  Ry
     scf convergence threshold =      1.0E-07
     mixing beta               =       0.7000
     number of iterations used =            8  plain     mixing
     Exchange-correlation=  SLA  PW   PBX  PBC
                           (   1   4   3   4   0   0   0)

     celldm(1)=  28.345892  celldm(2)=   0.000000  celldm(3)=   0.000000
     celldm(4)=   0.000000  celldm(5)=   0.000000  celldm(6)=   0.000000

     crystal axes: (cart. coord. in units of alat)
               a(1) = (   1.000000   0.000000   0.000000 )  
               a(2) = (   0.000000   1.000000   0.000000 )  
               a(3) = (   0.000000   0.000000   1.000000 )  

     reciprocal axes: (cart. coord. in units 2 pi/alat)
               b(1) = (  1.000000  0.000000  0.000000 )  
               b(2) = (  0.000000  1.000000  0.000000 )  
               b(3) = (  0.000000  0.000000  1.000000 )  


     PseudoPot. # 1 for O  read from file:
     /home/krojas/github_files/MatSciToolKit/tutorial/example_ase_ir_2/ir_1/o_pbe_v1.2.uspp.F.UPF
     MD5 check sum: 734c27235a0248c51dbae37a1fbe46ec
     Pseudo is Ultrasoft + core correction, Zval =  6.0
     Generated by new atomic code, or converted to UPF format
     Using radial grid of  737 points,  5 beta functions with: 
                l(1) =   0
                l(2) =   0
                l(3) =   1
                l(4) =   1
                l(5) =   2
     Q(r) pseudized with  8 coefficients,  rinner =    0.900   0.900   0.900
                                                       0.900   0.900

     PseudoPot. # 2 for H  read from file:
     /home/krojas/github_files/MatSciToolKit/tutorial/example_ase_ir_2/ir_1/h_pbe_v1.4.uspp.F.UPF
     MD5 check sum: 761ae9a214b05c3daf00ab9f6b793d6f
     Pseudo is Ultrasoft, Zval =  1.0
     Generated by new atomic code, or converted to UPF format
     Using radial grid of  615 points,  2 beta functions with: 
                l(1) =   0
                l(2) =   0
     Q(r) pseudized with  8 coefficients,  rinner =    0.700

     atomic species   valence    mass     pseudopotential
        O              6.00    15.99900     O ( 1.00)
        H              1.00     1.00800     H ( 1.00)

     No symmetry found



   Cartesian axes

     site n.     atom                  positions (alat units)
         1           O   tau(   1) = (   0.5000000   0.5000000   0.5201804  )
         2           H   tau(   2) = (   0.5000000   0.5520146   0.4798196  )
         3           H   tau(   3) = (   0.5000000   0.4486521   0.4798196  )

     number of k points=     1  Gaussian smearing, width (Ry)=  0.0100
                       cart. coord. in units 2pi/alat
        k(    1) = (   0.0000000   0.0000000   0.0000000), wk =   2.0000000

     Dense  grid:  4044289 G-vectors     FFT dimensions: ( 200, 200, 200)

     Smooth grid:  1429635 G-vectors     FFT dimensions: ( 144, 144, 144)

     Estimated max dynamical RAM per process >       2.25 GB

     Estimated total dynamical RAM >       9.02 GB

     Initial potential from superposition of free atoms

     starting charge       8.0000, renormalised to       8.0000

     negative rho (up, down):  5.052E-04 0.000E+00
 
     Adding external electric field

     Computed dipole along edir(2) : 
        Dipole                0.0000 Ry au,          0.0000 Debye
        Dipole field          0.0000 Ry au, 
 
        Potential amp.       -0.0000 Ry
        Total length         28.3431 bohr
 
     Starting wfcs are    6 randomized atomic wfcs +    2 random wfcs

     total cpu time spent up to now is        8.5 secs

     per-process dynamical memory:   488.9 Mb

     Self-consistent Calculation

     iteration #  1     ecut=    60.00 Ry     beta= 0.70
     Davidson diagonalization with overlap
     ethr =  1.00E-02,  avg # of iterations =  8.0

     negative rho (up, down):  1.820E-03 0.000E+00
 
     Adding external electric field

     Computed dipole along edir(2) : 
        Dipole                0.0090 Ry au,          0.0228 Debye
        Dipole field          0.0000 Ry au, 
 
        Potential amp.       -0.0003 Ry
        Total length         28.3431 bohr
 

     total cpu time spent up to now is       19.7 secs

     total energy              =     -34.47440703 Ry
     estimated scf accuracy    <       0.45480532 Ry

     iteration #  2     ecut=    60.00 Ry     beta= 0.70
     Davidson diagonalization with overlap
     ethr =  5.69E-03,  avg # of iterations =  2.0

     negative rho (up, down):  2.089E-03 0.000E+00
 
     Adding external electric field

     Computed dipole along edir(2) : 
        Dipole                0.0033 Ry au,          0.0083 Debye
        Dipole field          0.0000 Ry au, 
 
        Potential amp.       -0.0001 Ry
        Total length         28.3431 bohr
 

     total cpu time spent up to now is       30.0 secs

     total energy              =     -34.58596856 Ry
     estimated scf accuracy    <       0.45458969 Ry

     iteration #  3     ecut=    60.00 Ry     beta= 0.70
     Davidson diagonalization with overlap
     ethr =  5.68E-03,  avg # of iterations =  2.0

     negative rho (up, down):  2.367E-03 0.000E+00
 
     Adding external electric field

     Computed dipole along edir(2) : 
        Dipole                0.0051 Ry au,          0.0129 Debye
        Dipole field          0.0000 Ry au, 
 
        Potential amp.       -0.0002 Ry
        Total length         28.3431 bohr
 

     total cpu time spent up to now is       40.5 secs

     total energy              =     -34.66643170 Ry
     estimated scf accuracy    <       0.00371486 Ry

     iteration #  4     ecut=    60.00 Ry     beta= 0.70
     Davidson diagonalization with overlap
     ethr =  4.64E-05,  avg # of iterations =  8.0

     negative rho (up, down):  2.365E-03 0.000E+00
 
     Adding external electric field

     Computed dipole along edir(2) : 
        Dipole                0.0045 Ry au,          0.0116 Debye
        Dipole field          0.0000 Ry au, 
 
        Potential amp.       -0.0001 Ry
        Total length         28.3431 bohr
 

     total cpu time spent up to now is       51.9 secs

     total energy              =     -34.66743418 Ry
     estimated scf accuracy    <       0.00175422 Ry

     iteration #  5     ecut=    60.00 Ry     beta= 0.70
     Davidson diagonalization with overlap
     ethr =  2.19E-05,  avg # of iterations =  1.0

     negative rho (up, down):  2.406E-03 0.000E+00
 
     Adding external electric field

     Computed dipole along edir(2) : 
        Dipole                0.0045 Ry au,          0.0115 Debye
        Dipole field          0.0000 Ry au, 
 
        Potential amp.       -0.0001 Ry
        Total length         28.3431 bohr
 

     total cpu time spent up to now is       61.5 secs

     total energy              =     -34.66729366 Ry
     estimated scf accuracy    <       0.00034625 Ry

     iteration #  6     ecut=    60.00 Ry     beta= 0.70
     Davidson diagonalization with overlap
     ethr =  4.33E-06,  avg # of iterations =  8.0

     negative rho (up, down):  2.403E-03 0.000E+00
 
     Adding external electric field

     Computed dipole along edir(2) : 
        Dipole                0.0045 Ry au,          0.0113 Debye
        Dipole field          0.0000 Ry au, 
 
        Potential amp.       -0.0001 Ry
        Total length         28.3431 bohr
 

     total cpu time spent up to now is       73.0 secs

     total energy              =     -34.66741236 Ry
     estimated scf accuracy    <       0.00011735 Ry

     iteration #  7     ecut=    60.00 Ry     beta= 0.70
     Davidson diagonalization with overlap
     ethr =  1.47E-06,  avg # of iterations =  5.0

     negative rho (up, down):  2.410E-03 0.000E+00
 
     Adding external electric field

     Computed dipole along edir(2) : 
        Dipole                0.0044 Ry au,          0.0113 Debye
        Dipole field          0.0000 Ry au, 
 
        Potential amp.       -0.0001 Ry
        Total length         28.3431 bohr
 

     total cpu time spent up to now is       83.3 secs

     total energy              =     -34.66743004 Ry
     estimated scf accuracy    <       0.00000125 Ry

     iteration #  8     ecut=    60.00 Ry     beta= 0.70
     Davidson diagonalization with overlap
     ethr =  1.56E-08,  avg # of iterations =  2.0

     negative rho (up, down):  2.411E-03 0.000E+00
 
     Adding external electric field

     Computed dipole along edir(2) : 
        Dipole                0.0045 Ry au,          0.0113 Debye
        Dipole field          0.0000 Ry au, 
 
        Potential amp.       -0.0001 Ry
        Total length         28.3431 bohr
 

     total cpu time spent up to now is       93.2 secs

     total energy              =     -34.66743014 Ry
     estimated scf accuracy    <       0.00000025 Ry

     iteration #  9     ecut=    60.00 Ry     beta= 0.70
     Davidson diagonalization with overlap
     ethr =  3.11E-09,  avg # of iterations =  2.0

     negative rho (up, down):  2.411E-03 0.000E+00
 
     Adding external electric field

     Computed dipole along edir(2) : 
        Dipole                0.0044 Ry au,          0.0113 Debye
        Dipole field          0.0000 Ry au, 
 
        Potential amp.       -0.0001 Ry
        Total length         28.3431 bohr
 

     total cpu time spent up to now is      102.4 secs

     End of self-consistent calculation

          k = 0.0000 0.0000 0.0000 (178925 PWs)   bands (ev):

   -25.0831 -12.9186  -9.2824  -7.1787  -1.0005  -0.1071   0.2471   0.3814

     the Fermi energy is    -5.3045 ev

!    total energy              =     -34.66743018 Ry
     estimated scf accuracy    <          6.8E-09 Ry
     smearing contrib. (-TS)   =      -0.00000000 Ry
     internal energy E=F+TS    =     -34.66743018 Ry

     The total energy is F=E-TS. E is the sum of the following terms:
     one-electron contribution =     -69.35150340 Ry
     hartree contribution      =      36.15726598 Ry
     xc contribution           =      -8.67093150 Ry
     ewald contribution        =       7.19773872 Ry
     electric field correction =       0.00000001 Ry

     convergence has been achieved in   9 iterations

     negative rho (up, down):  2.411E-03 0.000E+00

     Forces acting on atoms (cartesian axes, Ry/au):

     atom    1 type  1   force =     0.00000015    0.01228570   -0.00739073
     atom    2 type  2   force =     0.00000013   -0.01336120    0.00846804
     atom    3 type  2   force =    -0.00000028    0.00107551   -0.00107732
     The non-local contrib.  to forces
     atom    1 type  1   force =     0.00000297    0.00225206   -2.16744592
     atom    2 type  2   force =    -0.00000004   -0.19169519    0.13694061
     atom    3 type  2   force =    -0.00000002    0.19534722    0.14163417
     The ionic contribution  to forces
     atom    1 type  1   force =    -0.00000000    0.03053187    4.27092508
     atom    2 type  2   force =    -0.00000000    2.95078148   -2.10976797
     atom    3 type  2   force =     0.00000000   -2.98131335   -2.16115711
     The local contribution  to forces
     atom    1 type  1   force =     0.00000524   -0.02035164   -2.12276262
     atom    2 type  2   force =     0.00000010   -2.77244008    1.98126676
     atom    3 type  2   force =     0.00000077    2.78704277    2.01841635
     The core correction contribution to forces
     atom    1 type  1   force =    -0.00000001   -0.00011870    0.01168060
     atom    2 type  2   force =     0.00000000    0.00000000    0.00000000
     atom    3 type  2   force =     0.00000000    0.00000000    0.00000000
     The Hubbard contrib.    to forces
     atom    1 type  1   force =     0.00000000    0.00000000    0.00000000
     atom    2 type  2   force =     0.00000000    0.00000000    0.00000000
     atom    3 type  2   force =     0.00000000    0.00000000    0.00000000
     The SCF correction term to forces
     atom    1 type  1   force =    -0.00000824    0.00000110    0.00019561
     atom    2 type  2   force =    -0.00000012   -0.00000297    0.00001212
     atom    3 type  2   force =    -0.00000123    0.00000332    0.00001276

     Total force =     0.021403     Total SCF correction =     0.000197

     Writing all to output data dir tmpdir/pwscf.save/
 
     init_run     :      6.89s CPU      8.42s WALL (       1 calls)
     electrons    :     78.33s CPU     94.01s WALL (       1 calls)
     forces       :      3.98s CPU      4.96s WALL (       1 calls)

     Called by init_run:
     wfcinit      :      0.42s CPU      0.50s WALL (       1 calls)
     potinit      :      1.83s CPU      2.20s WALL (       1 calls)
     hinit0       :      0.51s CPU      0.60s WALL (       1 calls)

     Called by electrons:
     c_bands      :     13.28s CPU     14.44s WALL (       9 calls)
     sum_band     :     30.49s CPU     35.66s WALL (       9 calls)
     v_of_rho     :     13.92s CPU     16.51s WALL (      10 calls)
     newd         :     18.52s CPU     25.76s WALL (      10 calls)
     mix_rho      :      3.75s CPU      4.08s WALL (       9 calls)

     Called by c_bands:
     init_us_2    :      0.19s CPU      0.20s WALL (      19 calls)
     init_us_2:cp :      0.19s CPU      0.20s WALL (      19 calls)
     cegterg      :     12.88s CPU     14.04s WALL (       9 calls)

     Called by *egterg:
     cdiaghg      :      0.01s CPU      0.01s WALL (      47 calls)
     h_psi        :     11.69s CPU     12.90s WALL (      48 calls)
     s_psi        :      0.18s CPU      0.18s WALL (      48 calls)
     g_psi        :      0.04s CPU      0.04s WALL (      38 calls)

     Called by h_psi:
     h_psi:calbec :      0.19s CPU      0.21s WALL (      48 calls)
     vloc_psi     :     11.25s CPU     12.44s WALL (      48 calls)
     add_vuspsi   :      0.18s CPU      0.19s WALL (      48 calls)

     General routines
     calbec       :      0.26s CPU      0.28s WALL (      61 calls)
     fft          :     12.55s CPU     15.83s WALL (     139 calls)
     ffts         :      0.61s CPU      0.74s WALL (      19 calls)
     fftw         :      8.98s CPU     10.26s WALL (     550 calls)
     interpolate  :      1.31s CPU      1.63s WALL (      10 calls)
 
     Parallel routines
 
     PWSCF        :   1m29.35s CPU   1m47.67s WALL

 
   This run was terminated on:  17:21:54   8Nov2023            

=------------------------------------------------------------------------------=
   JOB DONE.
=------------------------------------------------------------------------------=
