
     Program BANDS v.7.0 starts on 27Oct2023 at 16:21:59 

     This program is part of the open-source Quantum ESPRESSO suite
     for quantum simulation of materials; please cite
         "P. Giannozzi et al., J. Phys.:Condens. Matter 21 395502 (2009);
         "P. Giannozzi et al., J. Phys.:Condens. Matter 29 465901 (2017);
         "P. Giannozzi et al., J. Chem. Phys. 152 154105 (2020);
          URL http://www.quantum-espresso.org", 
     in publications or presentations arising from this work. More details at
     http://www.quantum-espresso.org/quote

     Parallel version (MPI), running on     1 processors

     MPI processes distributed on     1 nodes
     12874 MiB available memory on the printing compute node when the environment starts
 

     Reading xml data from directory:

     ./tmp/silicon.save/

     IMPORTANT: XC functional enforced from input :
     Exchange-correlation= PBE
                           (   1   4   3   4   0   0   0)
     Any further DFT definition will be discarded
     Please, verify this is what you really want

 
     G-vector sticks info
     --------------------
     sticks:   dense  smooth     PW     G-vecs:    dense   smooth      PW
     Sum        1417     721    211                35749    12627    2085
 
     Using Slab Decomposition
 
     Reading collected, re-writing distributed wavefunctions
     high-symmetry point:  0.5000 0.5000 0.5000   x coordinate   0.0000
     high-symmetry point:  0.0000 0.0000 0.0000   x coordinate   0.8660
     high-symmetry point:  1.0000 0.0000 0.0000   x coordinate   1.8660
     high-symmetry point:  1.0000 0.2500 0.2500   x coordinate   2.2196
     high-symmetry point:  0.0000 0.0000 0.0000   x coordinate   3.2802

     Plottable bands (eV) written to file si_bands.dat.gnu
     Bands written to file si_bands.dat

 **************************************************************************

                    xk=(   0.50000,   0.50000,   0.50000  )

     zone border point and non-symmorphic group 
     symmetry decomposition not available

 **************************************************************************

 **************************************************************************

                    xk=(   0.47500,   0.47500,   0.47500  )

     point group C_3v (3m)  
     there are  3 classes
     the character table:

       E     2C3   3s_v 
A_1    1.00  1.00  1.00
A_2    1.00  1.00 -1.00
E      2.00 -1.00  0.00

     the symmetry operations in each class and the name of the first element:

     E        1
                                                                 
     2C3      2    3
                                                                 
     3s_v     4    5    6
                                                                 

     Band symmetry, C_3v (3m)   point group:

     e(  1 -  1) =     -3.38884  eV     1   --> A_1  L_1       
     e(  2 -  2) =     -0.64215  eV     1   --> A_1  L_1       
     e(  3 -  4) =      5.13894  eV     2   --> E    L_3       
     e(  5 -  5) =      7.95132  eV     1   --> A_1  L_1       
     e(  6 -  7) =      9.69906  eV     2   --> E    L_3       
     e(  8 -  8) =     14.12924  eV     1   --> A_1  L_1       

 **************************************************************************

 **************************************************************************

                    xk=(   0.45000,   0.45000,   0.45000  )

     Band symmetry, C_3v (3m)   point group:

     e(  1 -  1) =     -3.48995  eV     1   --> A_1  L_1       
     e(  2 -  2) =     -0.49420  eV     1   --> A_1  L_1       
     e(  3 -  4) =      5.15250  eV     2   --> E    L_3       
     e(  5 -  5) =      7.96677  eV     1   --> A_1  L_1       
     e(  6 -  7) =      9.71493  eV     2   --> E    L_3       
     e(  8 -  8) =     14.15354  eV     1   --> A_1  L_1       

 **************************************************************************

 **************************************************************************

                    xk=(   0.42500,   0.42500,   0.42500  )

     Band symmetry, C_3v (3m)   point group:

     e(  1 -  1) =     -3.63780  eV     1   --> A_1  L_1       
     e(  2 -  2) =     -0.26839  eV     1   --> A_1  L_1       
     e(  3 -  4) =      5.17508  eV     2   --> E    L_3       
     e(  5 -  5) =      7.99244  eV     1   --> A_1  L_1       
     e(  6 -  7) =      9.74012  eV     2   --> E    L_3       
     e(  8 -  8) =     14.19170  eV     1   --> A_1  L_1       

 **************************************************************************

 **************************************************************************

                    xk=(   0.40000,   0.40000,   0.40000  )

     Band symmetry, C_3v (3m)   point group:

     e(  1 -  1) =     -3.81382  eV     1   --> A_1  L_1       
     e(  2 -  2) =      0.01650  eV     1   --> A_1  L_1       
     e(  3 -  4) =      5.20666  eV     2   --> E    L_3       
     e(  5 -  5) =      8.02822  eV     1   --> A_1  L_1       
     e(  6 -  7) =      9.77266  eV     2   --> E    L_3       
     e(  8 -  8) =     14.23912  eV     1   --> A_1  L_1       

 **************************************************************************

 **************************************************************************

                    xk=(   0.37500,   0.37500,   0.37500  )

     Band symmetry, C_3v (3m)   point group:

     e(  1 -  1) =     -4.00366  eV     1   --> A_1  L_1       
     e(  2 -  2) =      0.34583  eV     1   --> A_1  L_1       
     e(  3 -  4) =      5.24717  eV     2   --> E    L_3       
     e(  5 -  5) =      8.07391  eV     1   --> A_1  L_1       
     e(  6 -  7) =      9.80955  eV     2   --> E    L_3       
     e(  8 -  8) =     14.28596  eV     1   --> A_1  L_1       

 **************************************************************************

 **************************************************************************

                    xk=(   0.35000,   0.35000,   0.35000  )

     Band symmetry, C_3v (3m)   point group:

     e(  1 -  1) =     -4.19746  eV     1   --> A_1  L_1       
     e(  2 -  2) =      0.70936  eV     1   --> A_1  L_1       
     e(  3 -  4) =      5.29651  eV     2   --> E    L_3       
     e(  5 -  5) =      8.12924  eV     1   --> A_1  L_1       
     e(  6 -  7) =      9.84670  eV     2   --> E    L_3       
     e(  8 -  8) =     14.31038  eV     1   --> A_1  L_1       

 **************************************************************************

 **************************************************************************

                    xk=(   0.32500,   0.32500,   0.32500  )

     Band symmetry, C_3v (3m)   point group:

     e(  1 -  1) =     -4.38875  eV     1   --> A_1  L_1       
     e(  2 -  2) =      1.10011  eV     1   --> A_1  L_1       
     e(  3 -  4) =      5.35451  eV     2   --> E    L_3       
     e(  5 -  5) =      8.19380  eV     1   --> A_1  L_1       
     e(  6 -  7) =      9.87870  eV     2   --> E    L_3       
     e(  8 -  8) =     14.26590  eV     1   --> A_1  L_1       

 **************************************************************************

 **************************************************************************

                    xk=(   0.30000,   0.30000,   0.30000  )

     Band symmetry, C_3v (3m)   point group:

     e(  1 -  1) =     -4.57323  eV     1   --> A_1  L_1       
     e(  2 -  2) =      1.51312  eV     1   --> A_1  L_1       
     e(  3 -  4) =      5.42092  eV     2   --> E    L_3       
     e(  5 -  5) =      8.26704  eV     1   --> A_1  L_1       
     e(  6 -  7) =      9.89894  eV     2   --> E    L_3       
     e(  8 -  8) =     13.97979  eV     1   -->   ?

 **************************************************************************

 **************************************************************************

                    xk=(   0.27500,   0.27500,   0.27500  )

     Band symmetry, C_3v (3m)   point group:

     e(  1 -  1) =     -4.74804  eV     1   --> A_1  L_1       
     e(  2 -  2) =      1.94466  eV     1   --> A_1  L_1       
     e(  3 -  4) =      5.49533  eV     2   --> E    L_3       
     e(  5 -  5) =      8.34817  eV     1   --> A_1  L_1       
     e(  6 -  7) =      9.90013  eV     2   --> E    L_3       
     e(  8 -  8) =     13.74512  eV     1   -->   ?

 **************************************************************************

 **************************************************************************

                    xk=(   0.25000,   0.25000,   0.25000  )

     Band symmetry, C_3v (3m)   point group:

     e(  1 -  1) =     -4.91120  eV     1   --> A_1  L_1       
     e(  2 -  2) =      2.39161  eV     1   --> A_1  L_1       
     e(  3 -  4) =      5.57715  eV     2   --> E    L_3       
     e(  5 -  5) =      8.43611  eV     1   --> A_1  L_1       
     e(  6 -  7) =      9.87548  eV     2   --> E    L_3       
     e(  8 -  8) =     13.39892  eV     1   --> A_1  L_1       

 **************************************************************************

 **************************************************************************

                    xk=(   0.22500,   0.22500,   0.22500  )

     Band symmetry, C_3v (3m)   point group:

     e(  1 -  1) =     -5.06131  eV     1   --> A_1  L_1       
     e(  2 -  2) =      2.85112  eV     1   --> A_1  L_1       
     e(  3 -  4) =      5.66553  eV     2   --> E    L_3       
     e(  5 -  5) =      8.52935  eV     1   --> A_1  L_1       
     e(  6 -  7) =      9.82055  eV     2   --> E    L_3       
     e(  8 -  8) =     12.97670  eV     1   --> A_1  L_1       

 **************************************************************************

 **************************************************************************

                    xk=(   0.20000,   0.20000,   0.20000  )

     Band symmetry, C_3v (3m)   point group:

     e(  1 -  1) =     -5.19738  eV     1   --> A_1  L_1       
     e(  2 -  2) =      3.32015  eV     1   --> A_1  L_1       
     e(  3 -  4) =      5.75930  eV     2   --> E    L_3       
     e(  5 -  5) =      8.62584  eV     1   --> A_1  L_1       
     e(  6 -  7) =      9.73502  eV     2   --> E    L_3       
     e(  8 -  8) =     12.53681  eV     1   --> A_1  L_1       

 **************************************************************************

 **************************************************************************

                    xk=(   0.17500,   0.17500,   0.17500  )

     Band symmetry, C_3v (3m)   point group:

     e(  1 -  1) =     -5.31866  eV     1   --> A_1  L_1       
     e(  2 -  2) =      3.79520  eV     1   --> A_1  L_1       
     e(  3 -  4) =      5.85680  eV     2   --> E    L_3       
     e(  5 -  5) =      8.72270  eV     1   --> A_1  L_1       
     e(  6 -  7) =      9.62330  eV     2   --> E    L_3       
     e(  8 -  8) =     12.08907  eV     1   --> A_1  L_1       

 **************************************************************************

 **************************************************************************

                    xk=(   0.15000,   0.15000,   0.15000  )

     Band symmetry, C_3v (3m)   point group:

     e(  1 -  1) =     -5.42463  eV     1   --> A_1  L_1       
     e(  2 -  2) =      4.27165  eV     1   --> A_1  L_1       
     e(  3 -  4) =      5.95575  eV     2   --> E    L_3       
     e(  5 -  5) =      8.81588  eV     1   --> A_1  L_1       
     e(  6 -  7) =      9.49361  eV     2   --> E    L_3       
     e(  8 -  8) =     11.64084  eV     1   --> A_1  L_1       

 **************************************************************************

 **************************************************************************

                    xk=(   0.12500,   0.12500,   0.12500  )

     Band symmetry, C_3v (3m)   point group:

     e(  1 -  1) =     -5.51485  eV     1   --> A_1  L_1       
     e(  2 -  2) =      4.74304  eV     1   --> A_1  L_1       
     e(  3 -  4) =      6.05308  eV     2   --> E    L_3       
     e(  5 -  5) =      8.89958  eV     1   --> A_1  L_1       
     e(  6 -  7) =      9.35631  eV     2   --> E    L_3       
     e(  8 -  8) =     11.20097  eV     1   --> A_1  L_1       

 **************************************************************************

 **************************************************************************

                    xk=(   0.10000,   0.10000,   0.10000  )

     Band symmetry, C_3v (3m)   point group:

     e(  1 -  1) =     -5.58903  eV     1   --> A_1  L_1       
     e(  2 -  2) =      5.19937  eV     1   --> A_1  L_1       
     e(  3 -  4) =      6.14473  eV     2   --> E    L_3       
     e(  5 -  5) =      8.96529  eV     1   --> A_1  L_1       
     e(  6 -  7) =      9.22244  eV     2   --> E    L_3       
     e(  8 -  8) =     10.78345  eV     1   --> A_1  L_1       

 **************************************************************************

 **************************************************************************

                    xk=(   0.07500,   0.07500,   0.07500  )

     Band symmetry, C_3v (3m)   point group:

     e(  1 -  1) =     -5.64694  eV     1   --> A_1  L_1       
     e(  2 -  2) =      5.62421  eV     1   --> A_1  L_1       
     e(  3 -  4) =      6.22563  eV     2   --> E    L_3       
     e(  5 -  5) =      9.00087  eV     1   --> A_1  L_1       
     e(  6 -  7) =      9.10297  eV     2   --> E    L_3       
     e(  8 -  8) =     10.41184  eV     1   --> A_1  L_1       

 **************************************************************************

 **************************************************************************

                    xk=(   0.05000,   0.05000,   0.05000  )

     Band symmetry, C_3v (3m)   point group:

     e(  1 -  1) =     -5.68842  eV     1   --> A_1  L_1       
     e(  2 -  2) =      5.98948  eV     1   --> A_1  L_1       
     e(  3 -  4) =      6.28986  eV     2   --> E    L_3       
     e(  5 -  5) =      8.99386  eV     1   --> A_1  L_1       
     e(  6 -  7) =      9.00819  eV     2   --> E    L_3       
     e(  8 -  8) =     10.12167  eV     1   --> A_1  L_1       

 **************************************************************************

 **************************************************************************

                    xk=(   0.02500,   0.02500,   0.02500  )

     Band symmetry, C_3v (3m)   point group:

     e(  1 -  1) =     -5.71335  eV     1   --> A_1  L_1       
     e(  2 -  2) =      6.24930  eV     1   --> A_1  L_1       
     e(  3 -  4) =      6.33151  eV     2   --> E    L_3       
     e(  5 -  6) =      8.94706  eV     2   --> E    L_3       
     e(  7 -  7) =      8.95216  eV     1   --> A_1  L_1       
     e(  8 -  8) =      9.94646  eV     1   --> A_1  L_1       

 **************************************************************************

 **************************************************************************

                    xk=(   0.00000,   0.00000,   0.00000  )

     point group O_h (m-3m) 
     there are 10 classes
     the character table:

       E     8C3   3C2   6C4   6C2'  i     8S6   3s_h  6S4   6s_d 
A_1g   1.00  1.00  1.00  1.00  1.00  1.00  1.00  1.00  1.00  1.00
A_2g   1.00  1.00  1.00 -1.00 -1.00  1.00  1.00  1.00 -1.00 -1.00
E_g    2.00 -1.00  2.00  0.00  0.00  2.00 -1.00  2.00  0.00  0.00
T_1g   3.00  0.00 -1.00  1.00 -1.00  3.00  0.00 -1.00  1.00 -1.00
T_2g   3.00  0.00 -1.00 -1.00  1.00  3.00  0.00 -1.00 -1.00  1.00
A_1u   1.00  1.00  1.00  1.00  1.00 -1.00 -1.00 -1.00 -1.00 -1.00
A_2u   1.00  1.00  1.00 -1.00 -1.00 -1.00 -1.00 -1.00  1.00  1.00
E_u    2.00 -1.00  2.00  0.00  0.00 -2.00  1.00 -2.00  0.00  0.00
T_1u   3.00  0.00 -1.00  1.00 -1.00 -3.00  0.00  1.00 -1.00  1.00
T_2u   3.00  0.00 -1.00 -1.00  1.00 -3.00  0.00  1.00  1.00 -1.00

     the symmetry operations in each class and the name of the first element:

     E        1
                                                                 
     8C3     17   19   20   18   24   21   22   23
                                                                 
     3C2      2    4    3
                                                                 
     6C4      7    8   15   16   12   11
                                                                 
     6C2'     5    6   14   13   10    9
                                                                 
     i       25
                                                                 
     8S6     41   43   44   42   48   45   46   47
                                                                 
     3s_h    26   28   27
                                                                 
     6S4     31   32   39   40   36   35
                                                                 
     6s_d    29   30   38   37   34   33
                                                                 

     Band symmetry, O_h (m-3m)  point group:

     e(  1 -  1) =     -5.72166  eV     1   --> A_1g G_1   G_1+
     e(  2 -  4) =      6.34599  eV     3   --> T_2g G_25' G_5+
     e(  5 -  7) =      8.92593  eV     3   --> T_1u G_15  G_4-
     e(  8 -  8) =      9.89073  eV     1   --> A_2u G_2'  G_2-

 **************************************************************************

 **************************************************************************

                    xk=(   0.03333,   0.00000,   0.00000  )

     point group C_4v (4mm) 
     there are  5 classes
     the character table:

       E     2C4   C2    2s_v  2s_d 
A_1    1.00  1.00  1.00  1.00  1.00
A_2    1.00  1.00  1.00 -1.00 -1.00
B_1    1.00 -1.00  1.00  1.00 -1.00
B_2    1.00 -1.00  1.00 -1.00  1.00
E      2.00  0.00 -2.00  0.00  0.00

     the symmetry operations in each class and the name of the first element:

     E        1
                                                                 
     2C4      3    4
                                                                 
     C2       2
                                                                 
     2s_v     5    6
                                                                 
     2s_d     7    8
                                                                 

     Band symmetry, C_4v (4mm)  point group:

     e(  1 -  1) =     -5.71674  eV     1   --> A_1  G_1 D_1   
     e(  2 -  2) =      6.31337  eV     1   --> B_2  G_4 D_2'  
     e(  3 -  4) =      6.32445  eV     2   --> E    G_5 D_5   
     e(  5 -  5) =      8.91365  eV     1   --> A_1  G_1 D_1   
     e(  6 -  7) =      8.95352  eV     2   --> E    G_5 D_5   
     e(  8 -  8) =      9.92267  eV     1   --> B_2  G_4 D_2'  

 **************************************************************************

 **************************************************************************

                    xk=(   0.06667,   0.00000,   0.00000  )

     Band symmetry, C_4v (4mm)  point group:

     e(  1 -  1) =     -5.70195  eV     1   --> A_1  G_1 D_1   
     e(  2 -  2) =      6.21910  eV     1   --> B_2  G_4 D_2'  
     e(  3 -  4) =      6.26257  eV     2   --> E    G_5 D_5   
     e(  5 -  5) =      8.87750  eV     1   --> A_1  G_1 D_1   
     e(  6 -  7) =      9.03361  eV     2   --> E    G_5 D_5   
     e(  8 -  8) =     10.01430  eV     1   --> B_2  G_4 D_2'  

 **************************************************************************

 **************************************************************************

                    xk=(   0.10000,   0.00000,   0.00000  )

     Band symmetry, C_4v (4mm)  point group:

     e(  1 -  1) =     -5.67732  eV     1   --> A_1  G_1 D_1   
     e(  2 -  2) =      6.07215  eV     1   --> B_2  G_4 D_2'  
     e(  3 -  4) =      6.16719  eV     2   --> E    G_5 D_5   
     e(  5 -  5) =      8.81935  eV     1   --> A_1  G_1 D_1   
     e(  6 -  7) =      9.15929  eV     2   --> E    G_5 D_5   
     e(  8 -  8) =     10.15447  eV     1   --> B_2  G_4 D_2'  

 **************************************************************************

 **************************************************************************

                    xk=(   0.13333,   0.00000,   0.00000  )

     Band symmetry, C_4v (4mm)  point group:

     e(  1 -  1) =     -5.64286  eV     1   --> A_1  G_1 D_1   
     e(  2 -  2) =      5.88352  eV     1   --> B_2  G_4 D_2'  
     e(  3 -  4) =      6.04668  eV     2   --> E    G_5 D_5   
     e(  5 -  5) =      8.74196  eV     1   --> A_1  G_1 D_1   
     e(  6 -  7) =      9.32209  eV     2   --> E    G_5 D_5   
     e(  8 -  8) =     10.32777  eV     1   --> B_2  G_4 D_2'  

 **************************************************************************

 **************************************************************************

                    xk=(   0.16667,   0.00000,   0.00000  )

     Band symmetry, C_4v (4mm)  point group:

     e(  1 -  1) =     -5.59859  eV     1   --> A_1  G_1 D_1   
     e(  2 -  2) =      5.66351  eV     1   --> B_2  G_4 D_2'  
     e(  3 -  4) =      5.90889  eV     2   --> E    G_5 D_5   
     e(  5 -  5) =      8.64865  eV     1   --> A_1  G_1 D_1   
     e(  6 -  7) =      9.51411  eV     2   --> E    G_5 D_5   
     e(  8 -  8) =     10.51587  eV     1   --> B_2  G_4 D_2'  

 **************************************************************************

 **************************************************************************

                    xk=(   0.20000,   0.00000,   0.00000  )

     Band symmetry, C_4v (4mm)  point group:

     e(  1 -  1) =     -5.54453  eV     1   --> A_1  G_1 D_1   
     e(  2 -  2) =      5.42044  eV     1   --> B_2  G_4 D_2'  
     e(  3 -  4) =      5.76015  eV     2   --> E    G_5 D_5   
     e(  5 -  5) =      8.54287  eV     1   --> A_1  G_1 D_1   
     e(  6 -  7) =      9.72888  eV     2   --> E    G_5 D_5   
     e(  8 -  8) =     10.69589  eV     1   --> B_2  G_4 D_2'  

 **************************************************************************

 **************************************************************************

                    xk=(   0.23333,   0.00000,   0.00000  )

     Band symmetry, C_4v (4mm)  point group:

     e(  1 -  1) =     -5.48073  eV     1   --> A_1  G_1 D_1   
     e(  2 -  2) =      5.16058  eV     1   --> B_2  G_4 D_2'  
     e(  3 -  4) =      5.60530  eV     2   --> E    G_5 D_5   
     e(  5 -  5) =      8.42795  eV     1   --> A_1  G_1 D_1   
     e(  6 -  7) =      9.96144  eV     2   --> E    G_5 D_5   
     e(  8 -  8) =     10.83687  eV     1   --> B_2  G_4 D_2'  

 **************************************************************************

 **************************************************************************

                    xk=(   0.26667,   0.00000,   0.00000  )

     Band symmetry, C_4v (4mm)  point group:

     e(  1 -  1) =     -5.40721  eV     1   --> A_1  G_1 D_1   
     e(  2 -  2) =      4.88852  eV     1   --> B_2  G_4 D_2'  
     e(  3 -  4) =      5.44791  eV     2   --> E    G_5 D_5   
     e(  5 -  5) =      8.30697  eV     1   --> A_1  G_1 D_1   
     e(  6 -  7) =     10.20807  eV     2   --> E    G_5 D_5   
     e(  8 -  8) =     10.90051  eV     1   --> B_2  G_4 D_2'  

 **************************************************************************

 **************************************************************************

                    xk=(   0.30000,   0.00000,   0.00000  )

     Band symmetry, C_4v (4mm)  point group:

     e(  1 -  1) =     -5.32404  eV     1   --> A_1  G_1 D_1   
     e(  2 -  2) =      4.60751  eV     1   --> B_2  G_4 D_2'  
     e(  3 -  4) =      5.29061  eV     2   --> E    G_5 D_5   
     e(  5 -  5) =      8.18262  eV     1   --> A_1  G_1 D_1   
     e(  6 -  7) =     10.46601  eV     2   --> E    G_5 D_5   
     e(  8 -  8) =     10.85936  eV     1   --> B_2  G_4 D_2'  

 **************************************************************************

 **************************************************************************

                    xk=(   0.33333,   0.00000,   0.00000  )

     Band symmetry, C_4v (4mm)  point group:

     e(  1 -  1) =     -5.23125  eV     1   --> A_1  G_1 D_1   
     e(  2 -  2) =      4.31993  eV     1   --> B_2  G_4 D_2'  
     e(  3 -  4) =      5.13534  eV     2   --> E    G_5 D_5   
     e(  5 -  5) =      8.05724  eV     1   --> A_1  G_1 D_1   
     e(  6 -  6) =     10.72053  eV     1   --> B_2  G_4 D_2'  
     e(  7 -  8) =     10.73316  eV     2   --> E    G_5 D_5   

 **************************************************************************

 **************************************************************************

                    xk=(   0.36667,   0.00000,   0.00000  )

     Band symmetry, C_4v (4mm)  point group:

     e(  1 -  1) =     -5.12891  eV     1   --> A_1  G_1 D_1   
     e(  2 -  2) =      4.02747  eV     1   --> B_2  G_4 D_2'  
     e(  3 -  4) =      4.98352  eV     2   --> E    G_5 D_5   
     e(  5 -  5) =      7.93283  eV     1   --> A_1  G_1 D_1   
     e(  6 -  6) =     10.51551  eV     1   --> B_2  G_4 D_2'  
     e(  7 -  8) =     11.00793  eV     2   --> E    G_5 D_5   

 **************************************************************************

 **************************************************************************

                    xk=(   0.40000,   0.00000,   0.00000  )

     Band symmetry, C_4v (4mm)  point group:

     e(  1 -  1) =     -5.01709  eV     1   --> A_1  G_1 D_1   
     e(  2 -  2) =      3.73142  eV     1   --> B_2  G_4 D_2'  
     e(  3 -  4) =      4.83628  eV     2   --> E    G_5 D_5   
     e(  5 -  5) =      7.81106  eV     1   --> A_1  G_1 D_1   
     e(  6 -  6) =     10.27419  eV     1   --> B_2  G_4 D_2'  
     e(  7 -  8) =     11.28909  eV     2   --> E    G_5 D_5   

 **************************************************************************

 **************************************************************************

                    xk=(   0.43333,   0.00000,   0.00000  )

     Band symmetry, C_4v (4mm)  point group:

     e(  1 -  1) =     -4.89586  eV     1   --> A_1  G_1 D_1   
     e(  2 -  2) =      3.43272  eV     1   --> B_2  G_4 D_2'  
     e(  3 -  4) =      4.69446  eV     2   --> E    G_5 D_5   
     e(  5 -  5) =      7.69337  eV     1   --> A_1  G_1 D_1   
     e(  6 -  6) =     10.01629  eV     1   --> B_2  G_4 D_2'  
     e(  7 -  8) =     11.57568  eV     2   --> E    G_5 D_5   

 **************************************************************************

 **************************************************************************

                    xk=(   0.46667,   0.00000,   0.00000  )

     Band symmetry, C_4v (4mm)  point group:

     e(  1 -  1) =     -4.76532  eV     1   --> A_1  G_1 D_1   
     e(  2 -  2) =      3.13216  eV     1   --> B_2  G_4 D_2'  
     e(  3 -  4) =      4.55872  eV     2   --> E    G_5 D_5   
     e(  5 -  5) =      7.58093  eV     1   --> A_1  G_1 D_1   
     e(  6 -  6) =      9.75355  eV     1   --> B_2  G_4 D_2'  
     e(  7 -  8) =     11.86692  eV     2   --> E    G_5 D_5   

 **************************************************************************

 **************************************************************************

                    xk=(   0.50000,   0.00000,   0.00000  )

     Band symmetry, C_4v (4mm)  point group:

     e(  1 -  1) =     -4.62555  eV     1   --> A_1  G_1 D_1   
     e(  2 -  2) =      2.83035  eV     1   --> B_2  G_4 D_2'  
     e(  3 -  4) =      4.42959  eV     2   --> E    G_5 D_5   
     e(  5 -  5) =      7.47478  eV     1   --> A_1  G_1 D_1   
     e(  6 -  6) =      9.49301  eV     1   --> B_2  G_4 D_2'  
     e(  7 -  8) =     12.16223  eV     2   --> E    G_5 D_5   

 **************************************************************************

 **************************************************************************

                    xk=(   0.53333,   0.00000,   0.00000  )

     Band symmetry, C_4v (4mm)  point group:

     e(  1 -  1) =     -4.47666  eV     1   --> A_1  G_1 D_1   
     e(  2 -  2) =      2.52784  eV     1   --> B_2  G_4 D_2'  
     e(  3 -  4) =      4.30748  eV     2   --> E    G_5 D_5   
     e(  5 -  5) =      7.37577  eV     1   --> A_1  G_1 D_1   
     e(  6 -  6) =      9.23906  eV     1   --> B_2  G_4 D_2'  
     e(  7 -  8) =     12.46113  eV     2   --> E    G_5 D_5   

 **************************************************************************

 **************************************************************************

                    xk=(   0.56667,   0.00000,   0.00000  )

     Band symmetry, C_4v (4mm)  point group:

     e(  1 -  1) =     -4.31876  eV     1   --> A_1  G_1 D_1   
     e(  2 -  2) =      2.22511  eV     1   --> B_2  G_4 D_2'  
     e(  3 -  4) =      4.19277  eV     2   --> E    G_5 D_5   
     e(  5 -  5) =      7.28467  eV     1   --> A_1  G_1 D_1   
     e(  6 -  6) =      8.99451  eV     1   --> B_2  G_4 D_2'  
     e(  7 -  8) =     12.76325  eV     2   --> E    G_5 D_5   

 **************************************************************************

 **************************************************************************

                    xk=(   0.60000,   0.00000,   0.00000  )

     Band symmetry, C_4v (4mm)  point group:

     e(  1 -  1) =     -4.15198  eV     1   --> A_1  G_1 D_1   
     e(  2 -  2) =      1.92265  eV     1   --> B_2  G_4 D_2'  
     e(  3 -  4) =      4.08571  eV     2   --> E    G_5 D_5   
     e(  5 -  5) =      7.20212  eV     1   --> A_1  G_1 D_1   
     e(  6 -  6) =      8.76123  eV     1   --> B_2  G_4 D_2'  
     e(  7 -  8) =     13.06831  eV     2   --> E    G_5 D_5   

 **************************************************************************

 **************************************************************************

                    xk=(   0.63333,   0.00000,   0.00000  )

     Band symmetry, C_4v (4mm)  point group:

     e(  1 -  1) =     -3.97646  eV     1   --> A_1  G_1 D_1   
     e(  2 -  2) =      1.62090  eV     1   --> B_2  G_4 D_2'  
     e(  3 -  4) =      3.98656  eV     2   --> E    G_5 D_5   
     e(  5 -  5) =      7.12868  eV     1   --> A_1  G_1 D_1   
     e(  6 -  6) =      8.54047  eV     1   --> B_2  G_4 D_2'  
     e(  7 -  8) =     13.37612  eV     2   --> E    G_5 D_5   

 **************************************************************************

 **************************************************************************

                    xk=(   0.66667,   0.00000,   0.00000  )

     Band symmetry, C_4v (4mm)  point group:

     e(  1 -  1) =     -3.79234  eV     1   --> A_1  G_1 D_1   
     e(  2 -  2) =      1.32032  eV     1   --> B_2  G_4 D_2'  
     e(  3 -  4) =      3.89550  eV     2   --> E    G_5 D_5   
     e(  5 -  5) =      7.06487  eV     1   --> A_1  G_1 D_1   
     e(  6 -  6) =      8.33308  eV     1   --> B_2  G_4 D_2'  
     e(  7 -  8) =     13.68645  eV     2   --> E    G_5 D_5   

 **************************************************************************

 **************************************************************************

                    xk=(   0.70000,   0.00000,   0.00000  )

     Band symmetry, C_4v (4mm)  point group:

     e(  1 -  1) =     -3.59979  eV     1   --> A_1  G_1 D_1   
     e(  2 -  2) =      1.02135  eV     1   --> B_2  G_4 D_2'  
     e(  3 -  4) =      3.81271  eV     2   --> E    G_5 D_5   
     e(  5 -  5) =      7.01113  eV     1   --> A_1  G_1 D_1   
     e(  6 -  6) =      8.13958  eV     1   --> B_2  G_4 D_2'  
     e(  7 -  8) =     13.99918  eV     2   --> E    G_5 D_5   

 **************************************************************************

 **************************************************************************

                    xk=(   0.73333,   0.00000,   0.00000  )

     Band symmetry, C_4v (4mm)  point group:

     e(  1 -  1) =     -3.39899  eV     1   --> A_1  G_1 D_1   
     e(  2 -  2) =      0.72447  eV     1   --> B_2  G_4 D_2'  
     e(  3 -  4) =      3.73831  eV     2   --> E    G_5 D_5   
     e(  5 -  5) =      6.96789  eV     1   --> A_1  G_1 D_1   
     e(  6 -  6) =      7.96032  eV     1   --> B_2  G_4 D_2'  
     e(  7 -  8) =     14.31413  eV     2   --> E    G_5 D_5   

 **************************************************************************

 **************************************************************************

                    xk=(   0.76667,   0.00000,   0.00000  )

     Band symmetry, C_4v (4mm)  point group:

     e(  1 -  1) =     -3.19012  eV     1   --> A_1  G_1 D_1   
     e(  2 -  2) =      0.43012  eV     1   --> B_2  G_4 D_2'  
     e(  3 -  4) =      3.67242  eV     2   --> E    G_5 D_5   
     e(  5 -  5) =      6.93552  eV     1   --> A_1  G_1 D_1   
     e(  6 -  6) =      7.79548  eV     1   --> B_2  G_4 D_2'  
     e(  7 -  8) =     14.63105  eV     2   --> E    G_5 D_5   

 **************************************************************************

 **************************************************************************

                    xk=(   0.80000,   0.00000,   0.00000  )

     Band symmetry, C_4v (4mm)  point group:

     e(  1 -  1) =     -2.97340  eV     1   --> A_1  G_1 D_1   
     e(  2 -  2) =      0.13877  eV     1   --> B_2  G_4 D_2'  
     e(  3 -  4) =      3.61514  eV     2   --> E    G_5 D_5   
     e(  5 -  5) =      6.91438  eV     1   --> A_1  G_1 D_1   
     e(  6 -  6) =      7.64511  eV     1   --> B_2  G_4 D_2'  
     e(  7 -  8) =     14.94955  eV     2   --> E    G_5 D_5   

 **************************************************************************

 **************************************************************************

                    xk=(   0.83333,   0.00000,   0.00000  )

     Band symmetry, C_4v (4mm)  point group:

     e(  1 -  1) =     -2.74906  eV     1   --> A_1  G_1 D_1   
     e(  2 -  2) =     -0.14915  eV     1   --> B_2  G_4 D_2'  
     e(  3 -  4) =      3.56656  eV     2   --> E    G_5 D_5   
     e(  5 -  5) =      6.90481  eV     1   --> A_1  G_1 D_1   
     e(  6 -  6) =      7.50917  eV     1   --> B_2  G_4 D_2'  
     e(  7 -  8) =     15.26889  eV     2   --> E    G_5 D_5   

 **************************************************************************

 **************************************************************************

                    xk=(   0.86667,   0.00000,   0.00000  )

     Band symmetry, C_4v (4mm)  point group:

     e(  1 -  1) =     -2.51732  eV     1   --> A_1  G_1 D_1   
     e(  2 -  2) =     -0.43318  eV     1   --> B_2  G_4 D_2'  
     e(  3 -  4) =      3.52672  eV     2   --> E    G_5 D_5   
     e(  5 -  5) =      6.90712  eV     1   --> A_1  G_1 D_1   
     e(  6 -  6) =      7.38758  eV     1   --> B_2  G_4 D_2'  
     e(  7 -  8) =     15.58758  eV     2   --> E    G_5 D_5   

 **************************************************************************

 **************************************************************************

                    xk=(   0.90000,   0.00000,   0.00000  )

     Band symmetry, C_4v (4mm)  point group:

     e(  1 -  1) =     -2.27846  eV     1   --> A_1  G_1 D_1   
     e(  2 -  2) =     -0.71289  eV     1   --> B_2  G_4 D_2'  
     e(  3 -  4) =      3.49569  eV     2   --> E    G_5 D_5   
     e(  5 -  5) =      6.92161  eV     1   --> A_1  G_1 D_1   
     e(  6 -  6) =      7.28017  eV     1   --> B_2  G_4 D_2'  
     e(  7 -  8) =     15.90236  eV     2   --> E    G_5 D_5   

 **************************************************************************

 **************************************************************************

                    xk=(   0.93333,   0.00000,   0.00000  )

     Band symmetry, C_4v (4mm)  point group:

     e(  1 -  1) =     -2.03276  eV     1   --> A_1  G_1 D_1   
     e(  2 -  2) =     -0.98787  eV     1   --> B_2  G_4 D_2'  
     e(  3 -  4) =      3.47349  eV     2   --> E    G_5 D_5   
     e(  5 -  5) =      6.94858  eV     1   --> A_1  G_1 D_1   
     e(  6 -  6) =      7.18676  eV     1   --> B_2  G_4 D_2'  
     e(  7 -  8) =     16.20472  eV     2   --> E    G_5 D_5   

 **************************************************************************

 **************************************************************************

                    xk=(   0.96667,   0.00000,   0.00000  )

     Band symmetry, C_4v (4mm)  point group:

     e(  1 -  1) =     -1.78052  eV     1   --> A_1  G_1 D_1   
     e(  2 -  2) =     -1.25772  eV     1   --> B_2  G_4 D_2'  
     e(  3 -  4) =      3.46017  eV     2   --> E    G_5 D_5   
     e(  5 -  5) =      6.98831  eV     1   --> A_1  G_1 D_1   
     e(  6 -  6) =      7.10715  eV     1   --> B_2  G_4 D_2'  
     e(  7 -  8) =     16.46704  eV     2   --> E    G_5 D_5   

 **************************************************************************

 **************************************************************************

                    xk=(   1.00000,   0.00000,   0.00000  )

     zone border point and non-symmorphic group 
     symmetry decomposition not available

 **************************************************************************

 **************************************************************************

                    xk=(   1.00000,   0.02500,   0.02500  )

     zone border point and non-symmorphic group 
     symmetry decomposition not available

 **************************************************************************

 **************************************************************************

                    xk=(   1.00000,   0.05000,   0.05000  )

     zone border point and non-symmorphic group 
     symmetry decomposition not available

 **************************************************************************

 **************************************************************************

                    xk=(   1.00000,   0.07500,   0.07500  )

     zone border point and non-symmorphic group 
     symmetry decomposition not available

 **************************************************************************

 **************************************************************************

                    xk=(   1.00000,   0.10000,   0.10000  )

     zone border point and non-symmorphic group 
     symmetry decomposition not available

 **************************************************************************

 **************************************************************************

                    xk=(   1.00000,   0.12500,   0.12500  )

     zone border point and non-symmorphic group 
     symmetry decomposition not available

 **************************************************************************

 **************************************************************************

                    xk=(   1.00000,   0.15000,   0.15000  )

     zone border point and non-symmorphic group 
     symmetry decomposition not available

 **************************************************************************

 **************************************************************************

                    xk=(   1.00000,   0.17500,   0.17500  )

     zone border point and non-symmorphic group 
     symmetry decomposition not available

 **************************************************************************

 **************************************************************************

                    xk=(   1.00000,   0.20000,   0.20000  )

     zone border point and non-symmorphic group 
     symmetry decomposition not available

 **************************************************************************

 **************************************************************************

                    xk=(   1.00000,   0.22500,   0.22500  )

     zone border point and non-symmorphic group 
     symmetry decomposition not available

 **************************************************************************

 **************************************************************************

                    xk=(   1.00000,   0.25000,   0.25000  )

     zone border point and non-symmorphic group 
     symmetry decomposition not available

 **************************************************************************

 **************************************************************************

                    xk=(   0.96667,   0.24167,   0.24167  )

     point group C_s (m)    
     there are  2 classes
     the character table:

       E     s    
A'     1.00  1.00
A''    1.00 -1.00

     the symmetry operations in each class and the name of the first element:

     E        1
                                                                 
     s        2
                                                                 

     Band symmetry, C_s (m)     point group:

     e(  1 -  1) =     -1.93968  eV     1   --> A'             
     e(  2 -  2) =     -0.92774  eV     1   --> A'             
     e(  3 -  3) =      2.02335  eV     1   --> A'             
     e(  4 -  4) =      3.86518  eV     1   --> A''            
     e(  5 -  5) =      7.51724  eV     1   --> A'             
     e(  6 -  6) =     10.33814  eV     1   --> A'             
     e(  7 -  7) =     13.91550  eV     1   --> A''            
     e(  8 -  8) =     14.32406  eV     1   --> A'             

 **************************************************************************

 **************************************************************************

                    xk=(   0.93333,   0.23333,   0.23333  )

     Band symmetry, C_s (m)     point group:

     e(  1 -  1) =     -2.02725  eV     1   --> A'             
     e(  2 -  2) =     -0.85008  eV     1   --> A'             
     e(  3 -  3) =      2.09817  eV     1   --> A'             
     e(  4 -  4) =      3.85069  eV     1   --> A''            
     e(  5 -  5) =      7.50369  eV     1   --> A'             
     e(  6 -  6) =     10.18894  eV     1   --> A'             
     e(  7 -  7) =     13.82466  eV     1   --> A''            
     e(  8 -  8) =     14.10812  eV     1   --> A'             

 **************************************************************************

 **************************************************************************

                    xk=(   0.90000,   0.22500,   0.22500  )

     Band symmetry, C_s (m)     point group:

     e(  1 -  1) =     -2.17571  eV     1   --> A'             
     e(  2 -  2) =     -0.71159  eV     1   --> A'             
     e(  3 -  3) =      2.19757  eV     1   --> A'             
     e(  4 -  4) =      3.84539  eV     1   --> A''            
     e(  5 -  5) =      7.50258  eV     1   --> A'             
     e(  6 -  6) =     10.05397  eV     1   --> A'             
     e(  7 -  7) =     13.68805  eV     1   --> A''            
     e(  8 -  8) =     13.88457  eV     1   --> A'             

 **************************************************************************

 **************************************************************************

                    xk=(   0.86667,   0.21667,   0.21667  )

     Band symmetry, C_s (m)     point group:

     e(  1 -  1) =     -2.35873  eV     1   --> A'             
     e(  2 -  2) =     -0.53503  eV     1   --> A'             
     e(  3 -  3) =      2.31769  eV     1   --> A'             
     e(  4 -  4) =      3.84940  eV     1   --> A''            
     e(  5 -  5) =      7.51351  eV     1   --> A'             
     e(  6 -  6) =      9.93421  eV     1   --> A'             
     e(  7 -  7) =     13.53556  eV     1   --> A''            
     e(  8 -  8) =     13.65998  eV     1   --> A'             

 **************************************************************************

 **************************************************************************

                    xk=(   0.83333,   0.20833,   0.20833  )

     Band symmetry, C_s (m)     point group:

     e(  1 -  1) =     -2.55946  eV     1   --> A'             
     e(  2 -  2) =     -0.33443  eV     1   --> A'             
     e(  3 -  3) =      2.45522  eV     1   --> A'             
     e(  4 -  4) =      3.86282  eV     1   --> A''            
     e(  5 -  5) =      7.53586  eV     1   --> A'             
     e(  6 -  6) =      9.83074  eV     1   --> A'             
     e(  7 -  7) =     13.37824  eV     1   --> A''            
     e(  8 -  8) =     13.43592  eV     1   --> A'             

 **************************************************************************

 **************************************************************************

                    xk=(   0.80000,   0.20000,   0.20000  )

     Band symmetry, C_s (m)     point group:

     e(  1 -  1) =     -2.76834  eV     1   --> A'             
     e(  2 -  2) =     -0.11709  eV     1   --> A'             
     e(  3 -  3) =      2.60741  eV     1   --> A'             
     e(  4 -  4) =      3.88570  eV     1   --> A''            
     e(  5 -  5) =      7.56874  eV     1   --> A'             
     e(  6 -  6) =      9.74490  eV     1   --> A'             
     e(  7 -  7) =     13.21299  eV     1   --> A'             
     e(  8 -  8) =     13.22032  eV     1   --> A''            

 **************************************************************************

 **************************************************************************

                    xk=(   0.76667,   0.19167,   0.19167  )

     Band symmetry, C_s (m)     point group:

     e(  1 -  1) =     -2.97975  eV     1   --> A'             
     e(  2 -  2) =      0.11312  eV     1   --> A'             
     e(  3 -  3) =      2.77186  eV     1   --> A'             
     e(  4 -  4) =      3.91807  eV     1   --> A''            
     e(  5 -  5) =      7.61094  eV     1   --> A'             
     e(  6 -  6) =      9.67821  eV     1   --> A'             
     e(  7 -  7) =     12.99151  eV     1   --> A'             
     e(  8 -  8) =     13.06323  eV     1   --> A''            

 **************************************************************************

 **************************************************************************

                    xk=(   0.73333,   0.18333,   0.18333  )

     Band symmetry, C_s (m)     point group:

     e(  1 -  1) =     -3.19018  eV     1   --> A'             
     e(  2 -  2) =      0.35407  eV     1   --> A'             
     e(  3 -  3) =      2.94650  eV     1   --> A'             
     e(  4 -  4) =      3.95995  eV     1   --> A''            
     e(  5 -  5) =      7.66094  eV     1   --> A'             
     e(  6 -  6) =      9.63247  eV     1   --> A'             
     e(  7 -  7) =     12.77166  eV     1   --> A'             
     e(  8 -  8) =     12.90712  eV     1   --> A''            

 **************************************************************************

 **************************************************************************

                    xk=(   0.70000,   0.17500,   0.17500  )

     Band symmetry, C_s (m)     point group:

     e(  1 -  1) =     -3.39725  eV     1   --> A'             
     e(  2 -  2) =      0.60447  eV     1   --> A'             
     e(  3 -  3) =      3.12945  eV     1   --> A'             
     e(  4 -  4) =      4.01131  eV     1   --> A''            
     e(  5 -  5) =      7.71687  eV     1   --> A'             
     e(  6 -  6) =      9.60966  eV     1   --> A'             
     e(  7 -  7) =     12.55364  eV     1   --> A'             
     e(  8 -  8) =     12.75136  eV     1   --> A''            

 **************************************************************************

 **************************************************************************

                    xk=(   0.66667,   0.16667,   0.16667  )

     Band symmetry, C_s (m)     point group:

     e(  1 -  1) =     -3.59931  eV     1   --> A'             
     e(  2 -  2) =      0.86349  eV     1   --> A'             
     e(  3 -  3) =      3.31901  eV     1   --> A'             
     e(  4 -  4) =      4.07210  eV     1   --> A''            
     e(  5 -  5) =      7.77667  eV     1   --> A'             
     e(  6 -  6) =      9.61181  eV     1   --> A'             
     e(  7 -  7) =     12.33769  eV     1   --> A'             
     e(  8 -  8) =     12.59484  eV     1   --> A''            

 **************************************************************************

 **************************************************************************

                    xk=(   0.63333,   0.15833,   0.15833  )

     Band symmetry, C_s (m)     point group:

     e(  1 -  1) =     -3.79514  eV     1   --> A'             
     e(  2 -  2) =      1.13057  eV     1   --> A'             
     e(  3 -  3) =      3.51363  eV     1   --> A'             
     e(  4 -  4) =      4.14225  eV     1   --> A''            
     e(  5 -  5) =      7.83824  eV     1   --> A'             
     e(  6 -  6) =      9.64074  eV     1   --> A'             
     e(  7 -  7) =     12.12417  eV     1   --> A'             
     e(  8 -  8) =     12.43603  eV     1   --> A''            

 **************************************************************************

 **************************************************************************

                    xk=(   0.60000,   0.15000,   0.15000  )

     Band symmetry, C_s (m)     point group:

     e(  1 -  1) =     -3.98380  eV     1   --> A'             
     e(  2 -  2) =      1.40528  eV     1   --> A'             
     e(  3 -  3) =      3.71182  eV     1   --> A'             
     e(  4 -  4) =      4.22164  eV     1   --> A''            
     e(  5 -  5) =      7.89977  eV     1   --> A'             
     e(  6 -  6) =      9.69761  eV     1   --> A'             
     e(  7 -  7) =     11.91361  eV     1   --> A'             
     e(  8 -  8) =     12.27318  eV     1   --> A''            

 **************************************************************************

 **************************************************************************

                    xk=(   0.56667,   0.14167,   0.14167  )

     Band symmetry, C_s (m)     point group:

     e(  1 -  1) =     -4.16457  eV     1   --> A'             
     e(  2 -  2) =      1.68723  eV     1   --> A'             
     e(  3 -  3) =      3.91221  eV     1   --> A'             
     e(  4 -  4) =      4.31013  eV     1   --> A''            
     e(  5 -  5) =      7.96005  eV     1   --> A'             
     e(  6 -  6) =      9.78241  eV     1   --> A'             
     e(  7 -  7) =     11.70690  eV     1   --> A'             
     e(  8 -  8) =     12.10435  eV     1   --> A''            

 **************************************************************************

 **************************************************************************

                    xk=(   0.53333,   0.13333,   0.13333  )

     Band symmetry, C_s (m)     point group:

     e(  1 -  1) =     -4.33688  eV     1   --> A'             
     e(  2 -  2) =      1.97610  eV     1   --> A'             
     e(  3 -  3) =      4.11348  eV     1   --> A'             
     e(  4 -  4) =      4.40753  eV     1   --> A''            
     e(  5 -  5) =      8.01864  eV     1   --> A'             
     e(  6 -  6) =      9.89333  eV     1   --> A'             
     e(  7 -  7) =     11.50557  eV     1   --> A'             
     e(  8 -  8) =     11.92771  eV     1   --> A''            

 **************************************************************************

 **************************************************************************

                    xk=(   0.50000,   0.12500,   0.12500  )

     Band symmetry, C_s (m)     point group:

     e(  1 -  1) =     -4.50026  eV     1   --> A'             
     e(  2 -  2) =      2.27153  eV     1   --> A'             
     e(  3 -  3) =      4.31438  eV     1   --> A'             
     e(  4 -  4) =      4.51359  eV     1   --> A''            
     e(  5 -  5) =      8.07590  eV     1   --> A'             
     e(  6 -  6) =     10.02579  eV     1   --> A'             
     e(  7 -  7) =     11.31265  eV     1   --> A'             
     e(  8 -  8) =     11.74163  eV     1   --> A''            

 **************************************************************************

 **************************************************************************

                    xk=(   0.46667,   0.11667,   0.11667  )

     Band symmetry, C_s (m)     point group:

     e(  1 -  1) =     -4.65433  eV     1   --> A'             
     e(  2 -  2) =      2.57309  eV     1   --> A'             
     e(  3 -  3) =      4.51370  eV     1   --> A'             
     e(  4 -  4) =      4.62801  eV     1   --> A''            
     e(  5 -  5) =      8.13273  eV     1   --> A'             
     e(  6 -  6) =     10.16984  eV     1   --> A'             
     e(  7 -  7) =     11.13508  eV     1   --> A'             
     e(  8 -  8) =     11.54505  eV     1   --> A''            

 **************************************************************************

 **************************************************************************

                    xk=(   0.43333,   0.10833,   0.10833  )

     Band symmetry, C_s (m)     point group:

     e(  1 -  1) =     -4.79878  eV     1   --> A'             
     e(  2 -  2) =      2.88033  eV     1   --> A'             
     e(  3 -  3) =      4.71027  eV     1   --> A'             
     e(  4 -  4) =      4.75040  eV     1   --> A''            
     e(  5 -  5) =      8.19031  eV     1   --> A'             
     e(  6 -  6) =     10.30153  eV     1   --> A'             
     e(  7 -  7) =     10.99221  eV     1   --> A'             
     e(  8 -  8) =     11.33763  eV     1   --> A''            

 **************************************************************************

 **************************************************************************

                    xk=(   0.40000,   0.10000,   0.10000  )

     Band symmetry, C_s (m)     point group:

     e(  1 -  1) =     -4.93333  eV     1   --> A'             
     e(  2 -  2) =      3.19264  eV     1   --> A'             
     e(  3 -  3) =      4.88025  eV     1   --> A''            
     e(  4 -  4) =      4.90290  eV     1   --> A'             
     e(  5 -  5) =      8.24978  eV     1   --> A'             
     e(  6 -  6) =     10.36320  eV     1   --> A'             
     e(  7 -  7) =     10.93469  eV     1   --> A'             
     e(  8 -  8) =     11.11994  eV     1   --> A''            

 **************************************************************************

 **************************************************************************

                    xk=(   0.36667,   0.09167,   0.09167  )

     Band symmetry, C_s (m)     point group:

     e(  1 -  1) =     -5.05777  eV     1   --> A'             
     e(  2 -  2) =      3.50928  eV     1   --> A'             
     e(  3 -  3) =      5.01692  eV     1   --> A''            
     e(  4 -  4) =      5.09042  eV     1   --> A'             
     e(  5 -  5) =      8.31202  eV     1   --> A'             
     e(  6 -  6) =     10.30460  eV     1   --> A'             
     e(  7 -  7) =     10.89347  eV     1   --> A''            
     e(  8 -  8) =     11.00148  eV     1   --> A'             

 **************************************************************************

 **************************************************************************

                    xk=(   0.33333,   0.08333,   0.08333  )

     Band symmetry, C_s (m)     point group:

     e(  1 -  1) =     -5.17192  eV     1   --> A'             
     e(  2 -  2) =      3.82926  eV     1   --> A'             
     e(  3 -  3) =      5.15960  eV     1   --> A''            
     e(  4 -  4) =      5.27156  eV     1   --> A'             
     e(  5 -  5) =      8.37753  eV     1   --> A'             
     e(  6 -  6) =     10.17333  eV     1   --> A'             
     e(  7 -  7) =     10.66047  eV     1   --> A''            
     e(  8 -  8) =     11.12534  eV     1   --> A'             

 **************************************************************************

 **************************************************************************

                    xk=(   0.30000,   0.07500,   0.07500  )

     Band symmetry, C_s (m)     point group:

     e(  1 -  1) =     -5.27560  eV     1   --> A'             
     e(  2 -  2) =      4.15127  eV     1   --> A'             
     e(  3 -  3) =      5.30718  eV     1   --> A''            
     e(  4 -  4) =      5.44499  eV     1   --> A'             
     e(  5 -  5) =      8.44628  eV     1   --> A'             
     e(  6 -  6) =     10.01877  eV     1   --> A'             
     e(  7 -  7) =     10.42389  eV     1   --> A''            
     e(  8 -  8) =     11.22272  eV     1   --> A'             

 **************************************************************************

 **************************************************************************

                    xk=(   0.26667,   0.06667,   0.06667  )

     Band symmetry, C_s (m)     point group:

     e(  1 -  1) =     -5.36868  eV     1   --> A'             
     e(  2 -  2) =      4.47353  eV     1   --> A'             
     e(  3 -  3) =      5.45821  eV     1   --> A''            
     e(  4 -  4) =      5.60924  eV     1   --> A'             
     e(  5 -  5) =      8.51765  eV     1   --> A'             
     e(  6 -  6) =      9.85934  eV     1   --> A'             
     e(  7 -  7) =     10.18717  eV     1   --> A''            
     e(  8 -  8) =     11.22902  eV     1   --> A'             

 **************************************************************************

 **************************************************************************

                    xk=(   0.23333,   0.05833,   0.05833  )

     Band symmetry, C_s (m)     point group:

     e(  1 -  1) =     -5.45106  eV     1   --> A'             
     e(  2 -  2) =      4.79358  eV     1   --> A'             
     e(  3 -  3) =      5.61076  eV     1   --> A''            
     e(  4 -  4) =      5.76266  eV     1   --> A'             
     e(  5 -  5) =      8.59044  eV     1   --> A'             
     e(  6 -  6) =      9.70188  eV     1   --> A'             
     e(  7 -  7) =      9.95425  eV     1   --> A''            
     e(  8 -  8) =     11.11519  eV     1   --> A'             

 **************************************************************************

 **************************************************************************

                    xk=(   0.20000,   0.05000,   0.05000  )

     Band symmetry, C_s (m)     point group:

     e(  1 -  1) =     -5.52263  eV     1   --> A'             
     e(  2 -  2) =      5.10788  eV     1   --> A'             
     e(  3 -  3) =      5.76215  eV     1   --> A''            
     e(  4 -  4) =      5.90334  eV     1   --> A'             
     e(  5 -  5) =      8.66276  eV     1   --> A'             
     e(  6 -  6) =      9.54950  eV     1   --> A'             
     e(  7 -  7) =      9.72960  eV     1   --> A''            
     e(  8 -  8) =     10.91058  eV     1   --> A'             

 **************************************************************************

 **************************************************************************

                    xk=(   0.16667,   0.04167,   0.04167  )

     Band symmetry, C_s (m)     point group:

     e(  1 -  1) =     -5.58332  eV     1   --> A'             
     e(  2 -  2) =      5.41124  eV     1   --> A'             
     e(  3 -  3) =      5.90872  eV     1   --> A''            
     e(  4 -  4) =      6.02913  eV     1   --> A'             
     e(  5 -  5) =      8.73212  eV     1   --> A'             
     e(  6 -  6) =      9.40391  eV     1   --> A'             
     e(  7 -  7) =      9.51845  eV     1   --> A''            
     e(  8 -  8) =     10.66587  eV     1   --> A'             

 **************************************************************************

 **************************************************************************

                    xk=(   0.13333,   0.03333,   0.03333  )

     Band symmetry, C_s (m)     point group:

     e(  1 -  1) =     -5.63306  eV     1   --> A'             
     e(  2 -  2) =      5.69592  eV     1   --> A'             
     e(  3 -  3) =      6.04551  eV     1   --> A''            
     e(  4 -  4) =      6.13757  eV     1   --> A'             
     e(  5 -  5) =      8.79550  eV     1   --> A'             
     e(  6 -  6) =      9.26652  eV     1   --> A'             
     e(  7 -  7) =      9.32711  eV     1   --> A''            
     e(  8 -  8) =     10.42064  eV     1   --> A'             

 **************************************************************************

 **************************************************************************

                    xk=(   0.10000,   0.02500,   0.02500  )

     Band symmetry, C_s (m)     point group:

     e(  1 -  1) =     -5.67179  eV     1   --> A'             
     e(  2 -  2) =      5.95036  eV     1   --> A'             
     e(  3 -  3) =      6.16591  eV     1   --> A''            
     e(  4 -  4) =      6.22599  eV     1   --> A'             
     e(  5 -  5) =      8.84954  eV     1   --> A'             
     e(  6 -  6) =      9.14006  eV     1   --> A'             
     e(  7 -  7) =      9.16323  eV     1   --> A''            
     e(  8 -  8) =     10.20286  eV     1   --> A'             

 **************************************************************************

 **************************************************************************

                    xk=(   0.06667,   0.01667,   0.01667  )

     Band symmetry, C_s (m)     point group:

     e(  1 -  1) =     -5.69949  eV     1   --> A'             
     e(  2 -  2) =      6.15779  eV     1   --> A'             
     e(  3 -  3) =      6.26175  eV     1   --> A''            
     e(  4 -  4) =      6.29169  eV     1   --> A'             
     e(  5 -  5) =      8.89097  eV     1   --> A'             
     e(  6 -  6) =      9.03143  eV     1   --> A'             
     e(  7 -  7) =      9.03577  eV     1   --> A''            
     e(  8 -  8) =     10.03347  eV     1   --> A'             

 **************************************************************************

 **************************************************************************

                    xk=(   0.03333,   0.00833,   0.00833  )

     Band symmetry, C_s (m)     point group:

     e(  1 -  1) =     -5.71612  eV     1   --> A'             
     e(  2 -  2) =      6.29663  eV     1   --> A'             
     e(  3 -  3) =      6.32420  eV     1   --> A''            
     e(  4 -  4) =      6.33225  eV     1   --> A'             
     e(  5 -  5) =      8.91703  eV     1   --> A'             
     e(  6 -  6) =      8.95413  eV     1   --> A''            
     e(  7 -  7) =      8.95436  eV     1   --> A'             
     e(  8 -  8) =      9.92693  eV     1   --> A'             

 **************************************************************************

 **************************************************************************

                    xk=(   0.00000,   0.00000,   0.00000  )

     point group O_h (m-3m) 
     there are 10 classes
     the character table:

       E     8C3   3C2   6C4   6C2'  i     8S6   3s_h  6S4   6s_d 
A_1g   1.00  1.00  1.00  1.00  1.00  1.00  1.00  1.00  1.00  1.00
A_2g   1.00  1.00  1.00 -1.00 -1.00  1.00  1.00  1.00 -1.00 -1.00
E_g    2.00 -1.00  2.00  0.00  0.00  2.00 -1.00  2.00  0.00  0.00
T_1g   3.00  0.00 -1.00  1.00 -1.00  3.00  0.00 -1.00  1.00 -1.00
T_2g   3.00  0.00 -1.00 -1.00  1.00  3.00  0.00 -1.00 -1.00  1.00
A_1u   1.00  1.00  1.00  1.00  1.00 -1.00 -1.00 -1.00 -1.00 -1.00
A_2u   1.00  1.00  1.00 -1.00 -1.00 -1.00 -1.00 -1.00  1.00  1.00
E_u    2.00 -1.00  2.00  0.00  0.00 -2.00  1.00 -2.00  0.00  0.00
T_1u   3.00  0.00 -1.00  1.00 -1.00 -3.00  0.00  1.00 -1.00  1.00
T_2u   3.00  0.00 -1.00 -1.00  1.00 -3.00  0.00  1.00  1.00 -1.00

     the symmetry operations in each class and the name of the first element:

     E        1
                                                                 
     8C3     17   19   20   18   24   21   22   23
                                                                 
     3C2      2    4    3
                                                                 
     6C4      7    8   15   16   12   11
                                                                 
     6C2'     5    6   14   13   10    9
                                                                 
     i       25
                                                                 
     8S6     41   43   44   42   48   45   46   47
                                                                 
     3s_h    26   28   27
                                                                 
     6S4     31   32   39   40   36   35
                                                                 
     6s_d    29   30   38   37   34   33
                                                                 

     Band symmetry, O_h (m-3m)  point group:

     e(  1 -  1) =     -5.72166  eV     1   --> A_1g G_1   G_1+
     e(  2 -  4) =      6.34599  eV     3   --> T_2g G_25' G_5+
     e(  5 -  7) =      8.92593  eV     3   --> T_1u G_15  G_4-
     e(  8 -  8) =      9.89073  eV     1   --> A_2u G_2'  G_2-

 **************************************************************************
 
     BANDS        :      5.86s CPU      5.90s WALL

 
   This run was terminated on:  16:22: 4  27Oct2023            

=------------------------------------------------------------------------------=
   JOB DONE.
=------------------------------------------------------------------------------=
