
     Program PWSCF v.7.0 starts on 27Oct2023 at 14:33:20 

     This program is part of the open-source Quantum ESPRESSO suite
     for quantum simulation of materials; please cite
         "P. Giannozzi et al., J. Phys.:Condens. Matter 21 395502 (2009);
         "P. Giannozzi et al., J. Phys.:Condens. Matter 29 465901 (2017);
         "P. Giannozzi et al., J. Chem. Phys. 152 154105 (2020);
          URL http://www.quantum-espresso.org", 
     in publications or presentations arising from this work. More details at
     http://www.quantum-espresso.org/quote

     Parallel version (MPI), running on     1 processors

     MPI processes distributed on     1 nodes
     13213 MiB available memory on the printing compute node when the environment starts
 
     Reading input from espresso_pwbands.inp

     Current dimensions of program PWSCF are:
     Max number of different atomic species (ntypx) = 10
     Max number of k-points (npk) =  40000
     Max angular momentum in pseudopotentials (lmaxx) =  4

     Atomic positions and unit cell read from directory:
     ./tmp/silicon.save/
 

     Subspace diagonalization in iterative solution of the eigenvalue problem:
     a serial algorithm will be used

 
     G-vector sticks info
     --------------------
     sticks:   dense  smooth     PW     G-vecs:    dense   smooth      PW
     Sum        1417     721    211                35749    12627    2085
 
     Using Slab Decomposition
 


     bravais-lattice index     =            2
     lattice parameter (alat)  =      10.2076  a.u.
     unit-cell volume          =     265.8955 (a.u.)^3
     number of atoms/cell      =            2
     number of atomic types    =            1
     number of electrons       =         8.00
     number of Kohn-Sham states=            8
     kinetic-energy cutoff     =      50.0000  Ry
     charge density cutoff     =     400.0000  Ry
     Exchange-correlation= PBE
                           (   1   4   3   4   0   0   0)

     celldm(1)=  10.207600  celldm(2)=   0.000000  celldm(3)=   0.000000
     celldm(4)=   0.000000  celldm(5)=   0.000000  celldm(6)=   0.000000

     crystal axes: (cart. coord. in units of alat)
               a(1) = (  -0.500000   0.000000   0.500000 )  
               a(2) = (   0.000000   0.500000   0.500000 )  
               a(3) = (  -0.500000   0.500000   0.000000 )  

     reciprocal axes: (cart. coord. in units 2 pi/alat)
               b(1) = ( -1.000000 -1.000000  1.000000 )  
               b(2) = (  1.000000  1.000000  1.000000 )  
               b(3) = ( -1.000000  1.000000 -1.000000 )  


     PseudoPot. # 1 for Si read from file:
     ./Si.pbe-n-rrkjus_psl.1.0.0.UPF
     MD5 check sum: 0b0bb1205258b0d07b9f9672cf965d36
     Pseudo is Ultrasoft + core correction, Zval =  4.0
     Generated using "atomic" code by A. Dal Corso  v.5.1
     Using radial grid of 1141 points,  6 beta functions with: 
                l(1) =   0
                l(2) =   0
                l(3) =   1
                l(4) =   1
                l(5) =   2
                l(6) =   2
     Q(r) pseudized with 0 coefficients 


     atomic species   valence    mass     pseudopotential
        Si             4.00    28.08600     Si( 1.00)

     48 Sym. Ops., with inversion, found (24 have fractional translation)


                                    s                        frac. trans.

      isym =  1     identity                                     

 cryst.   s( 1) = (     1          0          0      )
                  (     0          1          0      )
                  (     0          0          1      )

 cart.    s( 1) = (  1.0000000  0.0000000  0.0000000 )
                  (  0.0000000  1.0000000  0.0000000 )
                  (  0.0000000  0.0000000  1.0000000 )


      isym =  2     180 deg rotation - cart. axis [0,0,1]        

 cryst.   s( 2) = (     0          1         -1      )
                  (     1          0         -1      )
                  (     0          0         -1      )

 cart.    s( 2) = ( -1.0000000  0.0000000  0.0000000 )
                  (  0.0000000 -1.0000000  0.0000000 )
                  (  0.0000000  0.0000000  1.0000000 )


      isym =  3     180 deg rotation - cart. axis [0,1,0]        

 cryst.   s( 3) = (    -1          0          0      )
                  (    -1          0          1      )
                  (    -1          1          0      )

 cart.    s( 3) = ( -1.0000000  0.0000000  0.0000000 )
                  (  0.0000000  1.0000000  0.0000000 )
                  (  0.0000000  0.0000000 -1.0000000 )


      isym =  4     180 deg rotation - cart. axis [1,0,0]        

 cryst.   s( 4) = (     0         -1          1      )
                  (     0         -1          0      )
                  (     1         -1          0      )

 cart.    s( 4) = (  1.0000000  0.0000000  0.0000000 )
                  (  0.0000000 -1.0000000  0.0000000 )
                  (  0.0000000  0.0000000 -1.0000000 )


      isym =  5     180 deg rotation - cart. axis [1,1,0]        

 cryst.   s( 5) = (     0         -1          0      )    f =(  0.2500000 )
                  (    -1          0          0      )       (  0.2500000 )
                  (     0          0         -1      )       (  0.2500000 )

 cart.    s( 5) = (  0.0000000  1.0000000  0.0000000 )    f =( -0.2500000 )
                  (  1.0000000  0.0000000  0.0000000 )       (  0.2500000 )
                  (  0.0000000  0.0000000 -1.0000000 )       (  0.2500000 )


      isym =  6     180 deg rotation - cart. axis [1,-1,0]       

 cryst.   s( 6) = (    -1          0          1      )    f =(  0.2500000 )
                  (     0         -1          1      )       (  0.2500000 )
                  (     0          0          1      )       (  0.2500000 )

 cart.    s( 6) = (  0.0000000 -1.0000000  0.0000000 )    f =( -0.2500000 )
                  ( -1.0000000  0.0000000  0.0000000 )       (  0.2500000 )
                  (  0.0000000  0.0000000 -1.0000000 )       (  0.2500000 )


      isym =  7      90 deg rotation - cart. axis [0,0,-1]       

 cryst.   s( 7) = (     0          1          0      )    f =(  0.2500000 )
                  (     0          1         -1      )       (  0.2500000 )
                  (    -1          1          0      )       (  0.2500000 )

 cart.    s( 7) = (  0.0000000  1.0000000  0.0000000 )    f =( -0.2500000 )
                  ( -1.0000000  0.0000000  0.0000000 )       (  0.2500000 )
                  (  0.0000000  0.0000000  1.0000000 )       (  0.2500000 )


      isym =  8      90 deg rotation - cart. axis [0,0,1]        

 cryst.   s( 8) = (     1          0         -1      )    f =(  0.2500000 )
                  (     1          0          0      )       (  0.2500000 )
                  (     1         -1          0      )       (  0.2500000 )

 cart.    s( 8) = (  0.0000000 -1.0000000  0.0000000 )    f =( -0.2500000 )
                  (  1.0000000  0.0000000  0.0000000 )       (  0.2500000 )
                  (  0.0000000  0.0000000  1.0000000 )       (  0.2500000 )


      isym =  9     180 deg rotation - cart. axis [1,0,1]        

 cryst.   s( 9) = (    -1          0          0      )    f =(  0.2500000 )
                  (     0          0         -1      )       (  0.2500000 )
                  (     0         -1          0      )       (  0.2500000 )

 cart.    s( 9) = (  0.0000000  0.0000000  1.0000000 )    f =( -0.2500000 )
                  (  0.0000000 -1.0000000  0.0000000 )       (  0.2500000 )
                  (  1.0000000  0.0000000  0.0000000 )       (  0.2500000 )


      isym = 10     180 deg rotation - cart. axis [-1,0,1]       

 cryst.   s(10) = (     1          0          0      )    f =(  0.2500000 )
                  (     1         -1          0      )       (  0.2500000 )
                  (     1          0         -1      )       (  0.2500000 )

 cart.    s(10) = (  0.0000000  0.0000000 -1.0000000 )    f =( -0.2500000 )
                  (  0.0000000 -1.0000000  0.0000000 )       (  0.2500000 )
                  ( -1.0000000  0.0000000  0.0000000 )       (  0.2500000 )


      isym = 11      90 deg rotation - cart. axis [0,1,0]        

 cryst.   s(11) = (     0          1         -1      )    f =(  0.2500000 )
                  (    -1          1          0      )       (  0.2500000 )
                  (     0          1          0      )       (  0.2500000 )

 cart.    s(11) = (  0.0000000  0.0000000  1.0000000 )    f =( -0.2500000 )
                  (  0.0000000  1.0000000  0.0000000 )       (  0.2500000 )
                  ( -1.0000000  0.0000000  0.0000000 )       (  0.2500000 )


      isym = 12      90 deg rotation - cart. axis [0,-1,0]       

 cryst.   s(12) = (     0         -1          1      )    f =(  0.2500000 )
                  (     0          0          1      )       (  0.2500000 )
                  (    -1          0          1      )       (  0.2500000 )

 cart.    s(12) = (  0.0000000  0.0000000 -1.0000000 )    f =( -0.2500000 )
                  (  0.0000000  1.0000000  0.0000000 )       (  0.2500000 )
                  (  1.0000000  0.0000000  0.0000000 )       (  0.2500000 )


      isym = 13     180 deg rotation - cart. axis [0,1,1]        

 cryst.   s(13) = (    -1          1          0      )    f =(  0.2500000 )
                  (     0          1          0      )       (  0.2500000 )
                  (     0          1         -1      )       (  0.2500000 )

 cart.    s(13) = ( -1.0000000  0.0000000  0.0000000 )    f =( -0.2500000 )
                  (  0.0000000  0.0000000  1.0000000 )       (  0.2500000 )
                  (  0.0000000  1.0000000  0.0000000 )       (  0.2500000 )


      isym = 14     180 deg rotation - cart. axis [0,1,-1]       

 cryst.   s(14) = (     0          0         -1      )    f =(  0.2500000 )
                  (     0         -1          0      )       (  0.2500000 )
                  (    -1          0          0      )       (  0.2500000 )

 cart.    s(14) = ( -1.0000000  0.0000000  0.0000000 )    f =( -0.2500000 )
                  (  0.0000000  0.0000000 -1.0000000 )       (  0.2500000 )
                  (  0.0000000 -1.0000000  0.0000000 )       (  0.2500000 )


      isym = 15      90 deg rotation - cart. axis [-1,0,0]       

 cryst.   s(15) = (     0          0          1      )    f =(  0.2500000 )
                  (    -1          0          1      )       (  0.2500000 )
                  (     0         -1          1      )       (  0.2500000 )

 cart.    s(15) = (  1.0000000  0.0000000  0.0000000 )    f =( -0.2500000 )
                  (  0.0000000  0.0000000  1.0000000 )       (  0.2500000 )
                  (  0.0000000 -1.0000000  0.0000000 )       (  0.2500000 )


      isym = 16      90 deg rotation - cart. axis [1,0,0]        

 cryst.   s(16) = (     1         -1          0      )    f =(  0.2500000 )
                  (     1          0         -1      )       (  0.2500000 )
                  (     1          0          0      )       (  0.2500000 )

 cart.    s(16) = (  1.0000000  0.0000000  0.0000000 )    f =( -0.2500000 )
                  (  0.0000000  0.0000000 -1.0000000 )       (  0.2500000 )
                  (  0.0000000  1.0000000  0.0000000 )       (  0.2500000 )


      isym = 17     120 deg rotation - cart. axis [-1,-1,-1]     

 cryst.   s(17) = (    -1          0          1      )
                  (    -1          1          0      )
                  (    -1          0          0      )

 cart.    s(17) = (  0.0000000  1.0000000  0.0000000 )
                  (  0.0000000  0.0000000  1.0000000 )
                  (  1.0000000  0.0000000  0.0000000 )


      isym = 18     120 deg rotation - cart. axis [-1,1,1]       

 cryst.   s(18) = (     0          1          0      )
                  (     0          0          1      )
                  (     1          0          0      )

 cart.    s(18) = (  0.0000000 -1.0000000  0.0000000 )
                  (  0.0000000  0.0000000  1.0000000 )
                  ( -1.0000000  0.0000000  0.0000000 )


      isym = 19     120 deg rotation - cart. axis [1,1,-1]       

 cryst.   s(19) = (     1          0         -1      )
                  (     0          0         -1      )
                  (     0          1         -1      )

 cart.    s(19) = (  0.0000000  1.0000000  0.0000000 )
                  (  0.0000000  0.0000000 -1.0000000 )
                  ( -1.0000000  0.0000000  0.0000000 )


      isym = 20     120 deg rotation - cart. axis [1,-1,1]       

 cryst.   s(20) = (     0         -1          0      )
                  (     1         -1          0      )
                  (     0         -1          1      )

 cart.    s(20) = (  0.0000000 -1.0000000  0.0000000 )
                  (  0.0000000  0.0000000 -1.0000000 )
                  (  1.0000000  0.0000000  0.0000000 )


      isym = 21     120 deg rotation - cart. axis [1,1,1]        

 cryst.   s(21) = (     0          0         -1      )
                  (     0          1         -1      )
                  (     1          0         -1      )

 cart.    s(21) = (  0.0000000  0.0000000  1.0000000 )
                  (  1.0000000  0.0000000  0.0000000 )
                  (  0.0000000  1.0000000  0.0000000 )


      isym = 22     120 deg rotation - cart. axis [-1,1,-1]      

 cryst.   s(22) = (    -1          1          0      )
                  (    -1          0          0      )
                  (    -1          0          1      )

 cart.    s(22) = (  0.0000000  0.0000000  1.0000000 )
                  ( -1.0000000  0.0000000  0.0000000 )
                  (  0.0000000 -1.0000000  0.0000000 )


      isym = 23     120 deg rotation - cart. axis [1,-1,-1]      

 cryst.   s(23) = (     0          0          1      )
                  (     1          0          0      )
                  (     0          1          0      )

 cart.    s(23) = (  0.0000000  0.0000000 -1.0000000 )
                  ( -1.0000000  0.0000000  0.0000000 )
                  (  0.0000000  1.0000000  0.0000000 )


      isym = 24     120 deg rotation - cart. axis [-1,-1,1]      

 cryst.   s(24) = (     1         -1          0      )
                  (     0         -1          1      )
                  (     0         -1          0      )

 cart.    s(24) = (  0.0000000  0.0000000 -1.0000000 )
                  (  1.0000000  0.0000000  0.0000000 )
                  (  0.0000000 -1.0000000  0.0000000 )


      isym = 25     inversion                                    

 cryst.   s(25) = (    -1          0          0      )    f =(  0.2500000 )
                  (     0         -1          0      )       (  0.2500000 )
                  (     0          0         -1      )       (  0.2500000 )

 cart.    s(25) = ( -1.0000000  0.0000000  0.0000000 )    f =( -0.2500000 )
                  (  0.0000000 -1.0000000  0.0000000 )       (  0.2500000 )
                  (  0.0000000  0.0000000 -1.0000000 )       (  0.2500000 )


      isym = 26     inv. 180 deg rotation - cart. axis [0,0,1]   

 cryst.   s(26) = (     0         -1          1      )    f =(  0.2500000 )
                  (    -1          0          1      )       (  0.2500000 )
                  (     0          0          1      )       (  0.2500000 )

 cart.    s(26) = (  1.0000000  0.0000000  0.0000000 )    f =( -0.2500000 )
                  (  0.0000000  1.0000000  0.0000000 )       (  0.2500000 )
                  (  0.0000000  0.0000000 -1.0000000 )       (  0.2500000 )


      isym = 27     inv. 180 deg rotation - cart. axis [0,1,0]   

 cryst.   s(27) = (     1          0          0      )    f =(  0.2500000 )
                  (     1          0         -1      )       (  0.2500000 )
                  (     1         -1          0      )       (  0.2500000 )

 cart.    s(27) = (  1.0000000  0.0000000  0.0000000 )    f =( -0.2500000 )
                  (  0.0000000 -1.0000000  0.0000000 )       (  0.2500000 )
                  (  0.0000000  0.0000000  1.0000000 )       (  0.2500000 )


      isym = 28     inv. 180 deg rotation - cart. axis [1,0,0]   

 cryst.   s(28) = (     0          1         -1      )    f =(  0.2500000 )
                  (     0          1          0      )       (  0.2500000 )
                  (    -1          1          0      )       (  0.2500000 )

 cart.    s(28) = ( -1.0000000  0.0000000  0.0000000 )    f =( -0.2500000 )
                  (  0.0000000  1.0000000  0.0000000 )       (  0.2500000 )
                  (  0.0000000  0.0000000  1.0000000 )       (  0.2500000 )


      isym = 29     inv. 180 deg rotation - cart. axis [1,1,0]   

 cryst.   s(29) = (     0          1          0      )
                  (     1          0          0      )
                  (     0          0          1      )

 cart.    s(29) = (  0.0000000 -1.0000000  0.0000000 )
                  ( -1.0000000  0.0000000  0.0000000 )
                  (  0.0000000  0.0000000  1.0000000 )


      isym = 30     inv. 180 deg rotation - cart. axis [1,-1,0]  

 cryst.   s(30) = (     1          0         -1      )
                  (     0          1         -1      )
                  (     0          0         -1      )

 cart.    s(30) = (  0.0000000  1.0000000  0.0000000 )
                  (  1.0000000  0.0000000  0.0000000 )
                  (  0.0000000  0.0000000  1.0000000 )


      isym = 31     inv.  90 deg rotation - cart. axis [0,0,-1]  

 cryst.   s(31) = (     0         -1          0      )
                  (     0         -1          1      )
                  (     1         -1          0      )

 cart.    s(31) = (  0.0000000 -1.0000000  0.0000000 )
                  (  1.0000000  0.0000000  0.0000000 )
                  (  0.0000000  0.0000000 -1.0000000 )


      isym = 32     inv.  90 deg rotation - cart. axis [0,0,1]   

 cryst.   s(32) = (    -1          0          1      )
                  (    -1          0          0      )
                  (    -1          1          0      )

 cart.    s(32) = (  0.0000000  1.0000000  0.0000000 )
                  ( -1.0000000  0.0000000  0.0000000 )
                  (  0.0000000  0.0000000 -1.0000000 )


      isym = 33     inv. 180 deg rotation - cart. axis [1,0,1]   

 cryst.   s(33) = (     1          0          0      )
                  (     0          0          1      )
                  (     0          1          0      )

 cart.    s(33) = (  0.0000000  0.0000000 -1.0000000 )
                  (  0.0000000  1.0000000  0.0000000 )
                  ( -1.0000000  0.0000000  0.0000000 )


      isym = 34     inv. 180 deg rotation - cart. axis [-1,0,1]  

 cryst.   s(34) = (    -1          0          0      )
                  (    -1          1          0      )
                  (    -1          0          1      )

 cart.    s(34) = (  0.0000000  0.0000000  1.0000000 )
                  (  0.0000000  1.0000000  0.0000000 )
                  (  1.0000000  0.0000000  0.0000000 )


      isym = 35     inv.  90 deg rotation - cart. axis [0,1,0]   

 cryst.   s(35) = (     0         -1          1      )
                  (     1         -1          0      )
                  (     0         -1          0      )

 cart.    s(35) = (  0.0000000  0.0000000 -1.0000000 )
                  (  0.0000000 -1.0000000  0.0000000 )
                  (  1.0000000  0.0000000  0.0000000 )


      isym = 36     inv.  90 deg rotation - cart. axis [0,-1,0]  

 cryst.   s(36) = (     0          1         -1      )
                  (     0          0         -1      )
                  (     1          0         -1      )

 cart.    s(36) = (  0.0000000  0.0000000  1.0000000 )
                  (  0.0000000 -1.0000000  0.0000000 )
                  ( -1.0000000  0.0000000  0.0000000 )


      isym = 37     inv. 180 deg rotation - cart. axis [0,1,1]   

 cryst.   s(37) = (     1         -1          0      )
                  (     0         -1          0      )
                  (     0         -1          1      )

 cart.    s(37) = (  1.0000000  0.0000000  0.0000000 )
                  (  0.0000000  0.0000000 -1.0000000 )
                  (  0.0000000 -1.0000000  0.0000000 )


      isym = 38     inv. 180 deg rotation - cart. axis [0,1,-1]  

 cryst.   s(38) = (     0          0          1      )
                  (     0          1          0      )
                  (     1          0          0      )

 cart.    s(38) = (  1.0000000  0.0000000  0.0000000 )
                  (  0.0000000  0.0000000  1.0000000 )
                  (  0.0000000  1.0000000  0.0000000 )


      isym = 39     inv.  90 deg rotation - cart. axis [-1,0,0]  

 cryst.   s(39) = (     0          0         -1      )
                  (     1          0         -1      )
                  (     0          1         -1      )

 cart.    s(39) = ( -1.0000000  0.0000000  0.0000000 )
                  (  0.0000000  0.0000000 -1.0000000 )
                  (  0.0000000  1.0000000  0.0000000 )


      isym = 40     inv.  90 deg rotation - cart. axis [1,0,0]   

 cryst.   s(40) = (    -1          1          0      )
                  (    -1          0          1      )
                  (    -1          0          0      )

 cart.    s(40) = ( -1.0000000  0.0000000  0.0000000 )
                  (  0.0000000  0.0000000  1.0000000 )
                  (  0.0000000 -1.0000000  0.0000000 )


      isym = 41     inv. 120 deg rotation - cart. axis [-1,-1,-1]

 cryst.   s(41) = (     1          0         -1      )    f =(  0.2500000 )
                  (     1         -1          0      )       (  0.2500000 )
                  (     1          0          0      )       (  0.2500000 )

 cart.    s(41) = (  0.0000000 -1.0000000  0.0000000 )    f =( -0.2500000 )
                  (  0.0000000  0.0000000 -1.0000000 )       (  0.2500000 )
                  ( -1.0000000  0.0000000  0.0000000 )       (  0.2500000 )


      isym = 42     inv. 120 deg rotation - cart. axis [-1,1,1]  

 cryst.   s(42) = (     0         -1          0      )    f =(  0.2500000 )
                  (     0          0         -1      )       (  0.2500000 )
                  (    -1          0          0      )       (  0.2500000 )

 cart.    s(42) = (  0.0000000  1.0000000  0.0000000 )    f =( -0.2500000 )
                  (  0.0000000  0.0000000 -1.0000000 )       (  0.2500000 )
                  (  1.0000000  0.0000000  0.0000000 )       (  0.2500000 )


      isym = 43     inv. 120 deg rotation - cart. axis [1,1,-1]  

 cryst.   s(43) = (    -1          0          1      )    f =(  0.2500000 )
                  (     0          0          1      )       (  0.2500000 )
                  (     0         -1          1      )       (  0.2500000 )

 cart.    s(43) = (  0.0000000 -1.0000000  0.0000000 )    f =( -0.2500000 )
                  (  0.0000000  0.0000000  1.0000000 )       (  0.2500000 )
                  (  1.0000000  0.0000000  0.0000000 )       (  0.2500000 )


      isym = 44     inv. 120 deg rotation - cart. axis [1,-1,1]  

 cryst.   s(44) = (     0          1          0      )    f =(  0.2500000 )
                  (    -1          1          0      )       (  0.2500000 )
                  (     0          1         -1      )       (  0.2500000 )

 cart.    s(44) = (  0.0000000  1.0000000  0.0000000 )    f =( -0.2500000 )
                  (  0.0000000  0.0000000  1.0000000 )       (  0.2500000 )
                  ( -1.0000000  0.0000000  0.0000000 )       (  0.2500000 )


      isym = 45     inv. 120 deg rotation - cart. axis [1,1,1]   

 cryst.   s(45) = (     0          0          1      )    f =(  0.2500000 )
                  (     0         -1          1      )       (  0.2500000 )
                  (    -1          0          1      )       (  0.2500000 )

 cart.    s(45) = (  0.0000000  0.0000000 -1.0000000 )    f =( -0.2500000 )
                  ( -1.0000000  0.0000000  0.0000000 )       (  0.2500000 )
                  (  0.0000000 -1.0000000  0.0000000 )       (  0.2500000 )


      isym = 46     inv. 120 deg rotation - cart. axis [-1,1,-1] 

 cryst.   s(46) = (     1         -1          0      )    f =(  0.2500000 )
                  (     1          0          0      )       (  0.2500000 )
                  (     1          0         -1      )       (  0.2500000 )

 cart.    s(46) = (  0.0000000  0.0000000 -1.0000000 )    f =( -0.2500000 )
                  (  1.0000000  0.0000000  0.0000000 )       (  0.2500000 )
                  (  0.0000000  1.0000000  0.0000000 )       (  0.2500000 )


      isym = 47     inv. 120 deg rotation - cart. axis [1,-1,-1] 

 cryst.   s(47) = (     0          0         -1      )    f =(  0.2500000 )
                  (    -1          0          0      )       (  0.2500000 )
                  (     0         -1          0      )       (  0.2500000 )

 cart.    s(47) = (  0.0000000  0.0000000  1.0000000 )    f =( -0.2500000 )
                  (  1.0000000  0.0000000  0.0000000 )       (  0.2500000 )
                  (  0.0000000 -1.0000000  0.0000000 )       (  0.2500000 )


      isym = 48     inv. 120 deg rotation - cart. axis [-1,-1,1] 

 cryst.   s(48) = (    -1          1          0      )    f =(  0.2500000 )
                  (     0          1         -1      )       (  0.2500000 )
                  (     0          1          0      )       (  0.2500000 )

 cart.    s(48) = (  0.0000000  0.0000000  1.0000000 )    f =( -0.2500000 )
                  ( -1.0000000  0.0000000  0.0000000 )       (  0.2500000 )
                  (  0.0000000  1.0000000  0.0000000 )       (  0.2500000 )


     point group O_h (m-3m) 
     there are 10 classes
     the character table:

       E     8C3   3C2   6C4   6C2'  i     8S6   3s_h  6S4   6s_d 
A_1g   1.00  1.00  1.00  1.00  1.00  1.00  1.00  1.00  1.00  1.00
A_2g   1.00  1.00  1.00 -1.00 -1.00  1.00  1.00  1.00 -1.00 -1.00
E_g    2.00 -1.00  2.00  0.00  0.00  2.00 -1.00  2.00  0.00  0.00
T_1g   3.00  0.00 -1.00  1.00 -1.00  3.00  0.00 -1.00  1.00 -1.00
T_2g   3.00  0.00 -1.00 -1.00  1.00  3.00  0.00 -1.00 -1.00  1.00
A_1u   1.00  1.00  1.00  1.00  1.00 -1.00 -1.00 -1.00 -1.00 -1.00
A_2u   1.00  1.00  1.00 -1.00 -1.00 -1.00 -1.00 -1.00  1.00  1.00
E_u    2.00 -1.00  2.00  0.00  0.00 -2.00  1.00 -2.00  0.00  0.00
T_1u   3.00  0.00 -1.00  1.00 -1.00 -3.00  0.00  1.00 -1.00  1.00
T_2u   3.00  0.00 -1.00 -1.00  1.00 -3.00  0.00  1.00  1.00 -1.00

     the symmetry operations in each class and the name of the first element:

     E        1
          identity                                               
     8C3     17   19   20   18   24   21   22   23
          120 deg rotation - cart. axis [-1,-1,-1]               
     3C2      2    4    3
          180 deg rotation - cart. axis [0,0,1]                  
     6C4      7    8   15   16   12   11
           90 deg rotation - cart. axis [0,0,-1]                 
     6C2'     5    6   14   13   10    9
          180 deg rotation - cart. axis [1,1,0]                  
     i       25
          inversion                                              
     8S6     41   43   44   42   48   45   46   47
          inv. 120 deg rotation - cart. axis [-1,-1,-1]          
     3s_h    26   28   27
          inv. 180 deg rotation - cart. axis [0,0,1]             
     6S4     31   32   39   40   36   35
          inv.  90 deg rotation - cart. axis [0,0,-1]            
     6s_d    29   30   38   37   34   33
          inv. 180 deg rotation - cart. axis [1,1,0]             

   Cartesian axes

     site n.     atom                  positions (alat units)
         1           Si  tau(   1) = (   0.0000000   0.0000000   0.0000000  )
         2           Si  tau(   2) = (   0.2500000   0.2500000   0.2500000  )

   Crystallographic axes

     site n.     atom                  positions (cryst. coord.)
         1           Si  tau(   1) = (  0.0000000  0.0000000  0.0000000  )
         2           Si  tau(   2) = ( -0.2500000  0.7500000 -0.2500000  )

     number of k points=    91
                       cart. coord. in units 2pi/alat
        k(    1) = (   0.5000000   0.5000000   0.5000000), wk =   0.0219780
        k(    2) = (   0.4750000   0.4750000   0.4750000), wk =   0.0219780
        k(    3) = (   0.4500000   0.4500000   0.4500000), wk =   0.0219780
        k(    4) = (   0.4250000   0.4250000   0.4250000), wk =   0.0219780
        k(    5) = (   0.4000000   0.4000000   0.4000000), wk =   0.0219780
        k(    6) = (   0.3750000   0.3750000   0.3750000), wk =   0.0219780
        k(    7) = (   0.3500000   0.3500000   0.3500000), wk =   0.0219780
        k(    8) = (   0.3250000   0.3250000   0.3250000), wk =   0.0219780
        k(    9) = (   0.3000000   0.3000000   0.3000000), wk =   0.0219780
        k(   10) = (   0.2750000   0.2750000   0.2750000), wk =   0.0219780
        k(   11) = (   0.2500000   0.2500000   0.2500000), wk =   0.0219780
        k(   12) = (   0.2250000   0.2250000   0.2250000), wk =   0.0219780
        k(   13) = (   0.2000000   0.2000000   0.2000000), wk =   0.0219780
        k(   14) = (   0.1750000   0.1750000   0.1750000), wk =   0.0219780
        k(   15) = (   0.1500000   0.1500000   0.1500000), wk =   0.0219780
        k(   16) = (   0.1250000   0.1250000   0.1250000), wk =   0.0219780
        k(   17) = (   0.1000000   0.1000000   0.1000000), wk =   0.0219780
        k(   18) = (   0.0750000   0.0750000   0.0750000), wk =   0.0219780
        k(   19) = (   0.0500000   0.0500000   0.0500000), wk =   0.0219780
        k(   20) = (   0.0250000   0.0250000   0.0250000), wk =   0.0219780
        k(   21) = (   0.0000000   0.0000000   0.0000000), wk =   0.0219780
        k(   22) = (   0.0333333   0.0000000   0.0000000), wk =   0.0219780
        k(   23) = (   0.0666667   0.0000000   0.0000000), wk =   0.0219780
        k(   24) = (   0.1000000   0.0000000   0.0000000), wk =   0.0219780
        k(   25) = (   0.1333333   0.0000000   0.0000000), wk =   0.0219780
        k(   26) = (   0.1666667   0.0000000   0.0000000), wk =   0.0219780
        k(   27) = (   0.2000000   0.0000000   0.0000000), wk =   0.0219780
        k(   28) = (   0.2333333   0.0000000   0.0000000), wk =   0.0219780
        k(   29) = (   0.2666667   0.0000000   0.0000000), wk =   0.0219780
        k(   30) = (   0.3000000   0.0000000   0.0000000), wk =   0.0219780
        k(   31) = (   0.3333333   0.0000000   0.0000000), wk =   0.0219780
        k(   32) = (   0.3666667   0.0000000   0.0000000), wk =   0.0219780
        k(   33) = (   0.4000000   0.0000000   0.0000000), wk =   0.0219780
        k(   34) = (   0.4333333   0.0000000   0.0000000), wk =   0.0219780
        k(   35) = (   0.4666667   0.0000000   0.0000000), wk =   0.0219780
        k(   36) = (   0.5000000   0.0000000   0.0000000), wk =   0.0219780
        k(   37) = (   0.5333333   0.0000000   0.0000000), wk =   0.0219780
        k(   38) = (   0.5666667   0.0000000   0.0000000), wk =   0.0219780
        k(   39) = (   0.6000000   0.0000000   0.0000000), wk =   0.0219780
        k(   40) = (   0.6333333   0.0000000   0.0000000), wk =   0.0219780
        k(   41) = (   0.6666667   0.0000000   0.0000000), wk =   0.0219780
        k(   42) = (   0.7000000   0.0000000   0.0000000), wk =   0.0219780
        k(   43) = (   0.7333333   0.0000000   0.0000000), wk =   0.0219780
        k(   44) = (   0.7666667   0.0000000   0.0000000), wk =   0.0219780
        k(   45) = (   0.8000000   0.0000000   0.0000000), wk =   0.0219780
        k(   46) = (   0.8333333   0.0000000   0.0000000), wk =   0.0219780
        k(   47) = (   0.8666667   0.0000000   0.0000000), wk =   0.0219780
        k(   48) = (   0.9000000   0.0000000   0.0000000), wk =   0.0219780
        k(   49) = (   0.9333333   0.0000000   0.0000000), wk =   0.0219780
        k(   50) = (   0.9666667   0.0000000   0.0000000), wk =   0.0219780
        k(   51) = (   1.0000000   0.0000000   0.0000000), wk =   0.0219780
        k(   52) = (   1.0000000   0.0250000   0.0250000), wk =   0.0219780
        k(   53) = (   1.0000000   0.0500000   0.0500000), wk =   0.0219780
        k(   54) = (   1.0000000   0.0750000   0.0750000), wk =   0.0219780
        k(   55) = (   1.0000000   0.1000000   0.1000000), wk =   0.0219780
        k(   56) = (   1.0000000   0.1250000   0.1250000), wk =   0.0219780
        k(   57) = (   1.0000000   0.1500000   0.1500000), wk =   0.0219780
        k(   58) = (   1.0000000   0.1750000   0.1750000), wk =   0.0219780
        k(   59) = (   1.0000000   0.2000000   0.2000000), wk =   0.0219780
        k(   60) = (   1.0000000   0.2250000   0.2250000), wk =   0.0219780
        k(   61) = (   1.0000000   0.2500000   0.2500000), wk =   0.0219780
        k(   62) = (   0.9666667   0.2416667   0.2416667), wk =   0.0219780
        k(   63) = (   0.9333333   0.2333333   0.2333333), wk =   0.0219780
        k(   64) = (   0.9000000   0.2250000   0.2250000), wk =   0.0219780
        k(   65) = (   0.8666667   0.2166667   0.2166667), wk =   0.0219780
        k(   66) = (   0.8333333   0.2083333   0.2083333), wk =   0.0219780
        k(   67) = (   0.8000000   0.2000000   0.2000000), wk =   0.0219780
        k(   68) = (   0.7666667   0.1916667   0.1916667), wk =   0.0219780
        k(   69) = (   0.7333333   0.1833333   0.1833333), wk =   0.0219780
        k(   70) = (   0.7000000   0.1750000   0.1750000), wk =   0.0219780
        k(   71) = (   0.6666667   0.1666667   0.1666667), wk =   0.0219780
        k(   72) = (   0.6333333   0.1583333   0.1583333), wk =   0.0219780
        k(   73) = (   0.6000000   0.1500000   0.1500000), wk =   0.0219780
        k(   74) = (   0.5666667   0.1416667   0.1416667), wk =   0.0219780
        k(   75) = (   0.5333333   0.1333333   0.1333333), wk =   0.0219780
        k(   76) = (   0.5000000   0.1250000   0.1250000), wk =   0.0219780
        k(   77) = (   0.4666667   0.1166667   0.1166667), wk =   0.0219780
        k(   78) = (   0.4333333   0.1083333   0.1083333), wk =   0.0219780
        k(   79) = (   0.4000000   0.1000000   0.1000000), wk =   0.0219780
        k(   80) = (   0.3666667   0.0916667   0.0916667), wk =   0.0219780
        k(   81) = (   0.3333333   0.0833333   0.0833333), wk =   0.0219780
        k(   82) = (   0.3000000   0.0750000   0.0750000), wk =   0.0219780
        k(   83) = (   0.2666667   0.0666667   0.0666667), wk =   0.0219780
        k(   84) = (   0.2333333   0.0583333   0.0583333), wk =   0.0219780
        k(   85) = (   0.2000000   0.0500000   0.0500000), wk =   0.0219780
        k(   86) = (   0.1666667   0.0416667   0.0416667), wk =   0.0219780
        k(   87) = (   0.1333333   0.0333333   0.0333333), wk =   0.0219780
        k(   88) = (   0.1000000   0.0250000   0.0250000), wk =   0.0219780
        k(   89) = (   0.0666667   0.0166667   0.0166667), wk =   0.0219780
        k(   90) = (   0.0333333   0.0083333   0.0083333), wk =   0.0219780
        k(   91) = (   0.0000000   0.0000000   0.0000000), wk =   0.0219780

                       cryst. coord.
        k(    1) = (   0.0000000   0.5000000   0.0000000), wk =   0.0219780
        k(    2) = (   0.0000000   0.4750000   0.0000000), wk =   0.0219780
        k(    3) = (   0.0000000   0.4500000   0.0000000), wk =   0.0219780
        k(    4) = (   0.0000000   0.4250000   0.0000000), wk =   0.0219780
        k(    5) = (   0.0000000   0.4000000   0.0000000), wk =   0.0219780
        k(    6) = (   0.0000000   0.3750000   0.0000000), wk =   0.0219780
        k(    7) = (   0.0000000   0.3500000   0.0000000), wk =   0.0219780
        k(    8) = (   0.0000000   0.3250000   0.0000000), wk =   0.0219780
        k(    9) = (   0.0000000   0.3000000   0.0000000), wk =   0.0219780
        k(   10) = (   0.0000000   0.2750000   0.0000000), wk =   0.0219780
        k(   11) = (   0.0000000   0.2500000   0.0000000), wk =   0.0219780
        k(   12) = (   0.0000000   0.2250000   0.0000000), wk =   0.0219780
        k(   13) = (   0.0000000   0.2000000   0.0000000), wk =   0.0219780
        k(   14) = (   0.0000000   0.1750000   0.0000000), wk =   0.0219780
        k(   15) = (   0.0000000   0.1500000   0.0000000), wk =   0.0219780
        k(   16) = (   0.0000000   0.1250000   0.0000000), wk =   0.0219780
        k(   17) = (   0.0000000   0.1000000   0.0000000), wk =   0.0219780
        k(   18) = (   0.0000000   0.0750000   0.0000000), wk =   0.0219780
        k(   19) = (   0.0000000   0.0500000   0.0000000), wk =   0.0219780
        k(   20) = (   0.0000000   0.0250000   0.0000000), wk =   0.0219780
        k(   21) = (   0.0000000   0.0000000   0.0000000), wk =   0.0219780
        k(   22) = (  -0.0166667   0.0000000  -0.0166667), wk =   0.0219780
        k(   23) = (  -0.0333333   0.0000000  -0.0333333), wk =   0.0219780
        k(   24) = (  -0.0500000   0.0000000  -0.0500000), wk =   0.0219780
        k(   25) = (  -0.0666667   0.0000000  -0.0666667), wk =   0.0219780
        k(   26) = (  -0.0833333   0.0000000  -0.0833333), wk =   0.0219780
        k(   27) = (  -0.1000000   0.0000000  -0.1000000), wk =   0.0219780
        k(   28) = (  -0.1166667   0.0000000  -0.1166667), wk =   0.0219780
        k(   29) = (  -0.1333333   0.0000000  -0.1333333), wk =   0.0219780
        k(   30) = (  -0.1500000   0.0000000  -0.1500000), wk =   0.0219780
        k(   31) = (  -0.1666667   0.0000000  -0.1666667), wk =   0.0219780
        k(   32) = (  -0.1833333   0.0000000  -0.1833333), wk =   0.0219780
        k(   33) = (  -0.2000000   0.0000000  -0.2000000), wk =   0.0219780
        k(   34) = (  -0.2166667   0.0000000  -0.2166667), wk =   0.0219780
        k(   35) = (  -0.2333333   0.0000000  -0.2333333), wk =   0.0219780
        k(   36) = (  -0.2500000   0.0000000  -0.2500000), wk =   0.0219780
        k(   37) = (  -0.2666667   0.0000000  -0.2666667), wk =   0.0219780
        k(   38) = (  -0.2833333   0.0000000  -0.2833333), wk =   0.0219780
        k(   39) = (  -0.3000000   0.0000000  -0.3000000), wk =   0.0219780
        k(   40) = (  -0.3166667   0.0000000  -0.3166667), wk =   0.0219780
        k(   41) = (  -0.3333333   0.0000000  -0.3333333), wk =   0.0219780
        k(   42) = (  -0.3500000   0.0000000  -0.3500000), wk =   0.0219780
        k(   43) = (  -0.3666667   0.0000000  -0.3666667), wk =   0.0219780
        k(   44) = (  -0.3833333   0.0000000  -0.3833333), wk =   0.0219780
        k(   45) = (  -0.4000000   0.0000000  -0.4000000), wk =   0.0219780
        k(   46) = (  -0.4166667   0.0000000  -0.4166667), wk =   0.0219780
        k(   47) = (  -0.4333333   0.0000000  -0.4333333), wk =   0.0219780
        k(   48) = (  -0.4500000   0.0000000  -0.4500000), wk =   0.0219780
        k(   49) = (  -0.4666667   0.0000000  -0.4666667), wk =   0.0219780
        k(   50) = (  -0.4833333   0.0000000  -0.4833333), wk =   0.0219780
        k(   51) = (  -0.5000000   0.0000000  -0.5000000), wk =   0.0219780
        k(   52) = (  -0.4875000   0.0250000  -0.4875000), wk =   0.0219780
        k(   53) = (  -0.4750000   0.0500000  -0.4750000), wk =   0.0219780
        k(   54) = (  -0.4625000   0.0750000  -0.4625000), wk =   0.0219780
        k(   55) = (  -0.4500000   0.1000000  -0.4500000), wk =   0.0219780
        k(   56) = (  -0.4375000   0.1250000  -0.4375000), wk =   0.0219780
        k(   57) = (  -0.4250000   0.1500000  -0.4250000), wk =   0.0219780
        k(   58) = (  -0.4125000   0.1750000  -0.4125000), wk =   0.0219780
        k(   59) = (  -0.4000000   0.2000000  -0.4000000), wk =   0.0219780
        k(   60) = (  -0.3875000   0.2250000  -0.3875000), wk =   0.0219780
        k(   61) = (  -0.3750000   0.2500000  -0.3750000), wk =   0.0219780
        k(   62) = (  -0.3625000   0.2416667  -0.3625000), wk =   0.0219780
        k(   63) = (  -0.3500000   0.2333333  -0.3500000), wk =   0.0219780
        k(   64) = (  -0.3375000   0.2250000  -0.3375000), wk =   0.0219780
        k(   65) = (  -0.3250000   0.2166667  -0.3250000), wk =   0.0219780
        k(   66) = (  -0.3125000   0.2083333  -0.3125000), wk =   0.0219780
        k(   67) = (  -0.3000000   0.2000000  -0.3000000), wk =   0.0219780
        k(   68) = (  -0.2875000   0.1916667  -0.2875000), wk =   0.0219780
        k(   69) = (  -0.2750000   0.1833333  -0.2750000), wk =   0.0219780
        k(   70) = (  -0.2625000   0.1750000  -0.2625000), wk =   0.0219780
        k(   71) = (  -0.2500000   0.1666667  -0.2500000), wk =   0.0219780
        k(   72) = (  -0.2375000   0.1583333  -0.2375000), wk =   0.0219780
        k(   73) = (  -0.2250000   0.1500000  -0.2250000), wk =   0.0219780
        k(   74) = (  -0.2125000   0.1416667  -0.2125000), wk =   0.0219780
        k(   75) = (  -0.2000000   0.1333333  -0.2000000), wk =   0.0219780
        k(   76) = (  -0.1875000   0.1250000  -0.1875000), wk =   0.0219780
        k(   77) = (  -0.1750000   0.1166667  -0.1750000), wk =   0.0219780
        k(   78) = (  -0.1625000   0.1083333  -0.1625000), wk =   0.0219780
        k(   79) = (  -0.1500000   0.1000000  -0.1500000), wk =   0.0219780
        k(   80) = (  -0.1375000   0.0916667  -0.1375000), wk =   0.0219780
        k(   81) = (  -0.1250000   0.0833333  -0.1250000), wk =   0.0219780
        k(   82) = (  -0.1125000   0.0750000  -0.1125000), wk =   0.0219780
        k(   83) = (  -0.1000000   0.0666667  -0.1000000), wk =   0.0219780
        k(   84) = (  -0.0875000   0.0583333  -0.0875000), wk =   0.0219780
        k(   85) = (  -0.0750000   0.0500000  -0.0750000), wk =   0.0219780
        k(   86) = (  -0.0625000   0.0416667  -0.0625000), wk =   0.0219780
        k(   87) = (  -0.0500000   0.0333333  -0.0500000), wk =   0.0219780
        k(   88) = (  -0.0375000   0.0250000  -0.0375000), wk =   0.0219780
        k(   89) = (  -0.0250000   0.0166667  -0.0250000), wk =   0.0219780
        k(   90) = (  -0.0125000   0.0083333  -0.0125000), wk =   0.0219780
        k(   91) = (   0.0000000   0.0000000   0.0000000), wk =   0.0219780

     Dense  grid:    35749 G-vectors     FFT dimensions: (  48,  48,  48)

     Smooth grid:    12627 G-vectors     FFT dimensions: (  36,  36,  36)

     Dynamical RAM for                 wfc:       0.19 MB

     Dynamical RAM for     wfc (w. buffer):       0.19 MB

     Dynamical RAM for           str. fact:       0.55 MB

     Dynamical RAM for           local pot:       0.00 MB

     Dynamical RAM for          nlocal pot:       0.87 MB

     Dynamical RAM for                qrad:       1.61 MB

     Dynamical RAM for          rho,v,vnew:       4.17 MB

     Dynamical RAM for           G-vectors:       2.14 MB

     Dynamical RAM for          h,s,v(r/c):       0.01 MB

     Dynamical RAM for          <psi|beta>:       0.00 MB

     Dynamical RAM for                 psi:       0.39 MB

     Dynamical RAM for                hpsi:       0.39 MB

     Dynamical RAM for                spsi:       0.39 MB

     Dynamical RAM for      wfcinit/wfcrot:       0.39 MB

     Dynamical RAM for           addusdens:     102.55 MB

     Estimated static dynamical RAM per process >      14.84 MB

     Estimated max dynamical RAM per process >     117.39 MB

     The potential is recalculated from file :
     ./tmp/silicon.save/charge-density

     Starting wfcs are    8 randomized atomic wfcs

     Band Structure Calculation
     Davidson diagonalization with overlap

     Computing kpt #:     1  of    91
     total cpu time spent up to now is        0.6 secs

     Computing kpt #:     2  of    91
     total cpu time spent up to now is        0.7 secs

     Computing kpt #:     3  of    91
     total cpu time spent up to now is        0.9 secs

     Computing kpt #:     4  of    91
     total cpu time spent up to now is        1.0 secs

     Computing kpt #:     5  of    91
     total cpu time spent up to now is        1.2 secs

     Computing kpt #:     6  of    91
     total cpu time spent up to now is        1.4 secs

     Computing kpt #:     7  of    91
     total cpu time spent up to now is        1.6 secs

     Computing kpt #:     8  of    91
     total cpu time spent up to now is        1.9 secs

     Computing kpt #:     9  of    91
     total cpu time spent up to now is        2.1 secs

     Computing kpt #:    10  of    91
     total cpu time spent up to now is        2.3 secs

     Computing kpt #:    11  of    91
     total cpu time spent up to now is        2.5 secs

     Computing kpt #:    12  of    91
     total cpu time spent up to now is        2.7 secs

     Computing kpt #:    13  of    91
     total cpu time spent up to now is        2.9 secs

     Computing kpt #:    14  of    91
     total cpu time spent up to now is        3.0 secs

     Computing kpt #:    15  of    91
     total cpu time spent up to now is        3.2 secs

     Computing kpt #:    16  of    91
     total cpu time spent up to now is        3.4 secs

     Computing kpt #:    17  of    91
     total cpu time spent up to now is        3.5 secs

     Computing kpt #:    18  of    91
     total cpu time spent up to now is        3.7 secs

     Computing kpt #:    19  of    91
     total cpu time spent up to now is        3.8 secs

     Computing kpt #:    20  of    91
     total cpu time spent up to now is        4.0 secs

     Computing kpt #:    21  of    91
     total cpu time spent up to now is        4.1 secs

     Computing kpt #:    22  of    91
     total cpu time spent up to now is        4.3 secs

     Computing kpt #:    23  of    91
     total cpu time spent up to now is        4.4 secs

     Computing kpt #:    24  of    91
     total cpu time spent up to now is        4.6 secs

     Computing kpt #:    25  of    91
     total cpu time spent up to now is        4.7 secs

     Computing kpt #:    26  of    91
     total cpu time spent up to now is        4.9 secs

     Computing kpt #:    27  of    91
     total cpu time spent up to now is        5.1 secs

     Computing kpt #:    28  of    91
     total cpu time spent up to now is        5.2 secs

     Computing kpt #:    29  of    91
     total cpu time spent up to now is        5.4 secs

     Computing kpt #:    30  of    91
     total cpu time spent up to now is        5.6 secs

     Computing kpt #:    31  of    91
     total cpu time spent up to now is        5.8 secs

     Computing kpt #:    32  of    91
     total cpu time spent up to now is        5.9 secs

     Computing kpt #:    33  of    91
     total cpu time spent up to now is        6.1 secs

     Computing kpt #:    34  of    91
     total cpu time spent up to now is        6.3 secs

     Computing kpt #:    35  of    91
     total cpu time spent up to now is        6.4 secs

     Computing kpt #:    36  of    91
     total cpu time spent up to now is        6.6 secs

     Computing kpt #:    37  of    91
     total cpu time spent up to now is        6.7 secs

     Computing kpt #:    38  of    91
     total cpu time spent up to now is        6.9 secs

     Computing kpt #:    39  of    91
     total cpu time spent up to now is        7.0 secs

     Computing kpt #:    40  of    91
     total cpu time spent up to now is        7.2 secs

     Computing kpt #:    41  of    91
     total cpu time spent up to now is        7.3 secs

     Computing kpt #:    42  of    91
     total cpu time spent up to now is        7.4 secs

     Computing kpt #:    43  of    91
     total cpu time spent up to now is        7.6 secs

     Computing kpt #:    44  of    91
     total cpu time spent up to now is        7.7 secs

     Computing kpt #:    45  of    91
     total cpu time spent up to now is        7.9 secs

     Computing kpt #:    46  of    91
     total cpu time spent up to now is        8.1 secs

     Computing kpt #:    47  of    91
     total cpu time spent up to now is        8.2 secs

     Computing kpt #:    48  of    91
     total cpu time spent up to now is        8.4 secs

     Computing kpt #:    49  of    91
     total cpu time spent up to now is        8.5 secs

     Computing kpt #:    50  of    91
     total cpu time spent up to now is        8.7 secs

     Computing kpt #:    51  of    91
     total cpu time spent up to now is        8.9 secs

     Computing kpt #:    52  of    91
     total cpu time spent up to now is        9.1 secs

     Computing kpt #:    53  of    91
     total cpu time spent up to now is        9.3 secs

     Computing kpt #:    54  of    91
     total cpu time spent up to now is        9.4 secs

     Computing kpt #:    55  of    91
     total cpu time spent up to now is        9.7 secs

     Computing kpt #:    56  of    91
     total cpu time spent up to now is        9.9 secs

     Computing kpt #:    57  of    91
     total cpu time spent up to now is       10.1 secs

     Computing kpt #:    58  of    91
     c_bands:  1 eigenvalues not converged
     total cpu time spent up to now is       10.4 secs

     Computing kpt #:    59  of    91
     total cpu time spent up to now is       10.7 secs

     Computing kpt #:    60  of    91
     total cpu time spent up to now is       10.9 secs

     Computing kpt #:    61  of    91
     total cpu time spent up to now is       11.2 secs

     Computing kpt #:    62  of    91
     total cpu time spent up to now is       11.4 secs

     Computing kpt #:    63  of    91
     total cpu time spent up to now is       11.5 secs

     Computing kpt #:    64  of    91
     total cpu time spent up to now is       11.7 secs

     Computing kpt #:    65  of    91
     total cpu time spent up to now is       11.9 secs

     Computing kpt #:    66  of    91
     total cpu time spent up to now is       12.0 secs

     Computing kpt #:    67  of    91
     total cpu time spent up to now is       12.2 secs

     Computing kpt #:    68  of    91
     total cpu time spent up to now is       12.3 secs

     Computing kpt #:    69  of    91
     total cpu time spent up to now is       12.5 secs

     Computing kpt #:    70  of    91
     total cpu time spent up to now is       12.6 secs

     Computing kpt #:    71  of    91
     total cpu time spent up to now is       12.8 secs

     Computing kpt #:    72  of    91
     total cpu time spent up to now is       12.9 secs

     Computing kpt #:    73  of    91
     total cpu time spent up to now is       13.1 secs

     Computing kpt #:    74  of    91
     total cpu time spent up to now is       13.2 secs

     Computing kpt #:    75  of    91
     total cpu time spent up to now is       13.4 secs

     Computing kpt #:    76  of    91
     total cpu time spent up to now is       13.5 secs

     Computing kpt #:    77  of    91
     total cpu time spent up to now is       13.7 secs

     Computing kpt #:    78  of    91
     total cpu time spent up to now is       13.9 secs

     Computing kpt #:    79  of    91
     total cpu time spent up to now is       14.1 secs

     Computing kpt #:    80  of    91
     total cpu time spent up to now is       14.2 secs

     Computing kpt #:    81  of    91
     total cpu time spent up to now is       14.4 secs

     Computing kpt #:    82  of    91
     total cpu time spent up to now is       14.6 secs

     Computing kpt #:    83  of    91
     total cpu time spent up to now is       14.8 secs

     Computing kpt #:    84  of    91
     total cpu time spent up to now is       15.0 secs

     Computing kpt #:    85  of    91
     total cpu time spent up to now is       15.2 secs

     Computing kpt #:    86  of    91
     total cpu time spent up to now is       15.4 secs

     Computing kpt #:    87  of    91
     total cpu time spent up to now is       15.5 secs

     Computing kpt #:    88  of    91
     total cpu time spent up to now is       15.7 secs

     Computing kpt #:    89  of    91
     total cpu time spent up to now is       15.8 secs

     Computing kpt #:    90  of    91
     total cpu time spent up to now is       16.0 secs

     Computing kpt #:    91  of    91
     total cpu time spent up to now is       16.1 secs

     ethr =  1.25E-10,  avg # of iterations = 35.0

     total cpu time spent up to now is       16.1 secs

     End of band structure calculation

          k = 0.5000 0.5000 0.5000 (  1568 PWs)   bands (ev):

    -3.3288  -0.6749   5.1592   5.1592   7.9671   9.7073   9.7073  14.1289

          k = 0.4750 0.4750 0.4750 (  1574 PWs)   bands (ev):

    -3.3652  -0.6228   5.1637   5.1637   7.9722   9.7128   9.7128  14.1373

          k = 0.4500 0.4500 0.4500 (  1580 PWs)   bands (ev):

    -3.4666  -0.4746   5.1773   5.1773   7.9877   9.7287   9.7287  14.1617

          k = 0.4250 0.4250 0.4250 (  1586 PWs)   bands (ev):

    -3.6147  -0.2484   5.1998   5.1998   8.0133   9.7541   9.7541  14.2002

          k = 0.4000 0.4000 0.4000 (  1586 PWs)   bands (ev):

    -3.7911   0.0369   5.2314   5.2314   8.0490   9.7868   9.7868  14.2481

          k = 0.3750 0.3750 0.3750 (  1592 PWs)   bands (ev):

    -3.9812   0.3666   5.2720   5.2720   8.0947   9.8240   9.8240  14.2959

          k = 0.3500 0.3500 0.3500 (  1597 PWs)   bands (ev):

    -4.1752   0.7305   5.3213   5.3213   8.1499   9.8615   9.8615  14.3221

          k = 0.3250 0.3250 0.3250 (  1594 PWs)   bands (ev):

    -4.3667   1.1216   5.3794   5.3794   8.2144   9.8940   9.8940  14.2812

          k = 0.3000 0.3000 0.3000 (  1600 PWs)   bands (ev):

    -4.5514   1.5349   5.4458   5.4458   8.2876   9.9147   9.9147  13.9942

          k = 0.2750 0.2750 0.2750 (  1588 PWs)   bands (ev):

    -4.7263   1.9668   5.5203   5.5203   8.3686   9.9164   9.9164  13.7590

          k = 0.2500 0.2500 0.2500 (  1582 PWs)   bands (ev):

    -4.8896   2.4141   5.6022   5.6022   8.4564   9.8922   9.8922  13.4238

          k = 0.2250 0.2250 0.2250 (  1579 PWs)   bands (ev):

    -5.0399   2.8740   5.6908   5.6908   8.5496   9.8377   9.8377  13.0024

          k = 0.2000 0.2000 0.2000 (  1576 PWs)   bands (ev):

    -5.1760   3.3434   5.7847   5.7847   8.6459   9.7524   9.7524  12.5631

          k = 0.1750 0.1750 0.1750 (  1570 PWs)   bands (ev):

    -5.2974   3.8189   5.8824   5.8824   8.7426   9.6408   9.6408  12.1157

          k = 0.1500 0.1500 0.1500 (  1570 PWs)   bands (ev):

    -5.4034   4.2958   5.9816   5.9816   8.8355   9.5110   9.5110  11.6678

          k = 0.1250 0.1250 0.1250 (  1570 PWs)   bands (ev):

    -5.4937   4.7676   6.0792   6.0792   8.9189   9.3735   9.3735  11.2282

          k = 0.1000 0.1000 0.1000 (  1570 PWs)   bands (ev):

    -5.5679   5.2245   6.1712   6.1712   8.9841   9.2394   9.2394  10.8110

          k = 0.0750 0.0750 0.0750 (  1570 PWs)   bands (ev):

    -5.6259   5.6500   6.2524   6.2524   9.0189   9.1196   9.1196  10.4397

          k = 0.0500 0.0500 0.0500 (  1588 PWs)   bands (ev):

    -5.6674   6.0159   6.3169   6.3169   9.0110   9.0246   9.0246  10.1500

          k = 0.0250 0.0250 0.0250 (  1615 PWs)   bands (ev):

    -5.6923   6.2763   6.3587   6.3587   8.9632   8.9632   8.9685   9.9750

          k = 0.0000 0.0000 0.0000 (  1591 PWs)   bands (ev):

    -5.7006   6.3733   6.3733   6.3733   8.9420   8.9420   8.9420   9.9193

          k = 0.0333 0.0000 0.0000 (  1615 PWs)   bands (ev):

    -5.6957   6.3407   6.3516   6.3516   8.9297   8.9697   8.9697   9.9512

          k = 0.0667 0.0000 0.0000 (  1595 PWs)   bands (ev):

    -5.6809   6.2464   6.2894   6.2894   8.8935   9.0502   9.0502  10.0428

          k = 0.1000 0.0000 0.0000 (  1579 PWs)   bands (ev):

    -5.6563   6.0995   6.1935   6.1935   8.8353   9.1764   9.1764  10.1830

          k = 0.1333 0.0000 0.0000 (  1579 PWs)   bands (ev):

    -5.6218   5.9108   6.0725   6.0725   8.7578   9.3397   9.3397  10.3561

          k = 0.1667 0.0000 0.0000 (  1571 PWs)   bands (ev):

    -5.5775   5.6908   5.9341   5.9341   8.6643   9.5323   9.5323  10.5440

          k = 0.2000 0.0000 0.0000 (  1571 PWs)   bands (ev):

    -5.5234   5.4478   5.7849   5.7849   8.5584   9.7476   9.7476  10.7234

          k = 0.2333 0.0000 0.0000 (  1575 PWs)   bands (ev):

    -5.4596   5.1879   5.6296   5.6296   8.4433   9.9807   9.9807  10.8630

          k = 0.2667 0.0000 0.0000 (  1575 PWs)   bands (ev):

    -5.3860   4.9158   5.4718   5.4718   8.3222  10.2277  10.2277  10.9243

          k = 0.3000 0.0000 0.0000 (  1575 PWs)   bands (ev):

    -5.3028   4.6347   5.3142   5.3142   8.1977  10.4860  10.4860  10.8802

          k = 0.3333 0.0000 0.0000 (  1579 PWs)   bands (ev):

    -5.2099   4.3471   5.1586   5.1586   8.0721  10.7386  10.7535  10.7535

          k = 0.3667 0.0000 0.0000 (  1591 PWs)   bands (ev):

    -5.1075   4.0546   5.0065   5.0065   7.9476  10.5315  11.0286  11.0286

          k = 0.4000 0.0000 0.0000 (  1599 PWs)   bands (ev):

    -4.9956   3.7585   4.8590   4.8590   7.8256  10.2888  11.3101  11.3101

          k = 0.4333 0.0000 0.0000 (  1587 PWs)   bands (ev):

    -4.8743   3.4597   4.7169   4.7169   7.7078  10.0299  11.5969  11.5969

          k = 0.4667 0.0000 0.0000 (  1587 PWs)   bands (ev):

    -4.7437   3.1590   4.5810   4.5810   7.5952   9.7665  11.8884  11.8884

          k = 0.5000 0.0000 0.0000 (  1587 PWs)   bands (ev):

    -4.6039   2.8571   4.4517   4.4517   7.4889   9.5054  12.1839  12.1839

          k = 0.5333 0.0000 0.0000 (  1596 PWs)   bands (ev):

    -4.4549   2.5544   4.3294   4.3294   7.3898   9.2511  12.4829  12.4829

          k = 0.5667 0.0000 0.0000 (  1596 PWs)   bands (ev):

    -4.2969   2.2515   4.2146   4.2146   7.2985   9.0063  12.7852  12.7852

          k = 0.6000 0.0000 0.0000 (  1588 PWs)   bands (ev):

    -4.1300   1.9489   4.1074   4.1074   7.2158   8.7729  13.0904  13.0904

          k = 0.6333 0.0000 0.0000 (  1580 PWs)   bands (ev):

    -3.9544   1.6470   4.0081   4.0081   7.1423   8.5520  13.3983  13.3983

          k = 0.6667 0.0000 0.0000 (  1580 PWs)   bands (ev):

    -3.7701   1.3462   3.9170   3.9170   7.0783   8.3445  13.7087  13.7087

          k = 0.7000 0.0000 0.0000 (  1584 PWs)   bands (ev):

    -3.5774   1.0471   3.8341   3.8341   7.0244   8.1510  14.0215  14.0215

          k = 0.7333 0.0000 0.0000 (  1600 PWs)   bands (ev):

    -3.3765   0.7500   3.7596   3.7596   6.9811   7.9718  14.3365  14.3365

          k = 0.7667 0.0000 0.0000 (  1600 PWs)   bands (ev):

    -3.1675   0.4554   3.6936   3.6936   6.9486   7.8070  14.6535  14.6535

          k = 0.8000 0.0000 0.0000 (  1604 PWs)   bands (ev):

    -2.9506   0.1638   3.6363   3.6363   6.9273   7.6566  14.9720  14.9720

          k = 0.8333 0.0000 0.0000 (  1600 PWs)   bands (ev):

    -2.7261  -0.1243   3.5877   3.5877   6.9176   7.5208  15.2914  15.2914

          k = 0.8667 0.0000 0.0000 (  1604 PWs)   bands (ev):

    -2.4942  -0.4085   3.5478   3.5478   6.9198   7.3993  15.6101  15.6101

          k = 0.9000 0.0000 0.0000 (  1596 PWs)   bands (ev):

    -2.2552  -0.6884   3.5167   3.5167   6.9341   7.2920  15.9248  15.9248

          k = 0.9333 0.0000 0.0000 (  1596 PWs)   bands (ev):

    -2.0093  -0.9636   3.4945   3.4945   6.9610   7.1987  16.2272  16.2272

          k = 0.9667 0.0000 0.0000 (  1588 PWs)   bands (ev):

    -1.7569  -1.2337   3.4812   3.4812   7.0006   7.1192  16.4894  16.4894

          k = 1.0000 0.0000 0.0000 (  1588 PWs)   bands (ev):

    -1.4982  -1.4982   3.4767   3.4767   7.0532   7.0532  16.6144  16.6144

          k = 1.0000 0.0250 0.0250 (  1588 PWs)   bands (ev):

    -1.5004  -1.4922   3.4383   3.4812   7.0584   7.1098  16.5496  16.5817

          k = 1.0000 0.0500 0.0500 (  1588 PWs)   bands (ev):

    -1.5072  -1.4743   3.3306   3.4945   7.0738   7.2721  16.3742  16.4877

          k = 1.0000 0.0750 0.0750 (  1598 PWs)   bands (ev):

    -1.5193  -1.4444   3.1721   3.5168   7.0995   7.5225  16.1260  16.3428

          k = 1.0000 0.1000 0.1000 (  1596 PWs)   bands (ev):

    -1.5383  -1.4026   2.9836   3.5478   7.1354   7.8414  15.8363  16.1593

          k = 1.0000 0.1250 0.1250 (  1586 PWs)   bands (ev):

    -1.5658  -1.3489   2.7832   3.5875   7.1813   8.2123  15.5246  15.9483

          k = 1.0000 0.1500 0.1500 (  1594 PWs)   bands (ev):

    -1.6040  -1.2833   2.5851   3.6358   7.2372   8.6229  15.2024  15.7188

          k = 1.0000 0.1750 0.1750 (  1600 PWs)   bands (ev):

    -1.6556  -1.2058   2.4000   3.6924   7.3029   9.0644  14.8765  15.4775

          k = 1.0000 0.2000 0.2000 (  1596 PWs)   bands (ev):

    -1.7227  -1.1164   2.2362   3.7572   7.3781   9.5305  14.5510  15.1245

          k = 1.0000 0.2250 0.2250 (  1596 PWs)   bands (ev):

    -1.8074  -1.0153   2.0995   3.8300   7.4626  10.0163  14.2287  14.7900

          k = 1.0000 0.2500 0.2500 (  1580 PWs)   bands (ev):

    -1.9109  -0.9024   1.9940   3.9104   7.5561  10.5173  13.9115  14.4655

          k = 0.9667 0.2417 0.2417 (  1592 PWs)   bands (ev):

    -1.9152  -0.9038   2.0399   3.8868   7.5299  10.3546  13.9337  14.3465

          k = 0.9333 0.2333 0.2333 (  1593 PWs)   bands (ev):

    -2.0029  -0.8260   2.1149   3.8723   7.5163  10.2053  13.8428  14.1304

          k = 0.9000 0.2250 0.2250 (  1595 PWs)   bands (ev):

    -2.1517  -0.6874   2.2146   3.8670   7.5152  10.0702  13.7061  13.9069

          k = 0.8667 0.2167 0.2167 (  1595 PWs)   bands (ev):

    -2.3349  -0.5108   2.3351   3.8710   7.5262   9.9502  13.5536  13.6823

          k = 0.8333 0.2083 0.2083 (  1603 PWs)   bands (ev):

    -2.5359  -0.3101   2.4730   3.8844   7.5486   9.8465  13.3964  13.4582

          k = 0.8000 0.2000 0.2000 (  1603 PWs)   bands (ev):

    -2.7450  -0.0927   2.6255   3.9073   7.5816   9.7605  13.2353  13.2385

          k = 0.7667 0.1917 0.1917 (  1597 PWs)   bands (ev):

    -2.9567   0.1376   2.7904   3.9397   7.6240   9.6935  13.0138  13.0816

          k = 0.7333 0.1833 0.1833 (  1598 PWs)   bands (ev):

    -3.1673   0.3786   2.9654   3.9816   7.6742   9.6475  12.7939  12.9256

          k = 0.7000 0.1750 0.1750 (  1598 PWs)   bands (ev):

    -3.3746   0.6291   3.1488   4.0331   7.7304   9.6244  12.5758  12.7700

          k = 0.6667 0.1667 0.1667 (  1596 PWs)   bands (ev):

    -3.5768   0.8881   3.3388   4.0939   7.7904   9.6262  12.3598  12.6137

          k = 0.6333 0.1583 0.1583 (  1592 PWs)   bands (ev):

    -3.7728   1.1552   3.5339   4.1641   7.8523   9.6548  12.1462  12.4551

          k = 0.6000 0.1500 0.1500 (  1592 PWs)   bands (ev):

    -3.9616   1.4300   3.7326   4.2436   7.9142   9.7114  11.9355  12.2925

          k = 0.5667 0.1417 0.1417 (  1594 PWs)   bands (ev):

    -4.1425   1.7120   3.9334   4.3322   7.9748   9.7961  11.7285  12.1239

          k = 0.5333 0.1333 0.1333 (  1592 PWs)   bands (ev):

    -4.3150   2.0009   4.1351   4.4297   8.0337   9.9070  11.5269  11.9474

          k = 0.5000 0.1250 0.1250 (  1588 PWs)   bands (ev):

    -4.4785   2.2964   4.3365   4.5359   8.0912  10.0397  11.3335  11.7616

          k = 0.4667 0.1167 0.1167 (  1588 PWs)   bands (ev):

    -4.6326   2.5980   4.5363   4.6505   8.1483  10.1844  11.1552  11.5651

          k = 0.4333 0.1083 0.1083 (  1585 PWs)   bands (ev):

    -4.7772   2.9053   4.7333   4.7731   8.2060  10.3177  11.0108  11.3578

          k = 0.4000 0.1000 0.1000 (  1583 PWs)   bands (ev):

    -4.9118   3.2177   4.9031   4.9263   8.2656  10.3821  10.9508  11.1401

          k = 0.3667 0.0917 0.0917 (  1583 PWs)   bands (ev):

    -5.0364   3.5344   5.0400   5.1143   8.3279  10.3254  10.9136  11.0165

          k = 0.3333 0.0833 0.0833 (  1577 PWs)   bands (ev):

    -5.1506   3.8545   5.1830   5.2958   8.3934  10.1943  10.6804  11.1415

          k = 0.3000 0.0750 0.0750 (  1573 PWs)   bands (ev):

    -5.2543   4.1766   5.3308   5.4697   8.4622  10.0395  10.4436  11.2414

          k = 0.2667 0.0667 0.0667 (  1576 PWs)   bands (ev):

    -5.3474   4.4990   5.4822   5.6344   8.5336   9.8797  10.2066  11.2511

          k = 0.2333 0.0583 0.0583 (  1570 PWs)   bands (ev):

    -5.4299   4.8192   5.6351   5.7882   8.6064   9.7217   9.9733  11.1402

          k = 0.2000 0.0500 0.0500 (  1568 PWs)   bands (ev):

    -5.5015   5.1337   5.7870   5.9292   8.6787   9.5688   9.7483  10.9373

          k = 0.1667 0.0417 0.0417 (  1569 PWs)   bands (ev):

    -5.5622   5.4373   5.9340   6.0554   8.7481   9.4226   9.5366  10.6934

          k = 0.1333 0.0333 0.0333 (  1573 PWs)   bands (ev):

    -5.6120   5.7222   6.0713   6.1642   8.8115   9.2845   9.3447  10.4487

          k = 0.1000 0.0250 0.0250 (  1579 PWs)   bands (ev):

    -5.6507   5.9770   6.1922   6.2529   8.8656   9.1573   9.1803  10.2312

          k = 0.0667 0.0167 0.0167 (  1592 PWs)   bands (ev):

    -5.6785   6.1847   6.2886   6.3188   8.9070   9.0481   9.0524  10.0620

          k = 0.0333 0.0083 0.0083 (  1613 PWs)   bands (ev):

    -5.6951   6.3238   6.3514   6.3595   8.9331   8.9704   8.9706   9.9555

          k = 0.0000 0.0000 0.0000 (  1591 PWs)   bands (ev):

    -5.7006   6.3733   6.3733   6.3733   8.9420   8.9420   8.9420   9.9193

     Writing all to output data dir ./tmp/silicon.save/
 
     init_run     :      0.26s CPU      0.30s WALL (       1 calls)
     electrons    :     15.66s CPU     15.71s WALL (       1 calls)

     Called by init_run:
     wfcinit      :      0.00s CPU      0.00s WALL (       1 calls)
     wfcinit:atom :      0.01s CPU      0.01s WALL (      91 calls)
     wfcinit:wfcr :      0.56s CPU      0.56s WALL (      91 calls)
     potinit      :      0.03s CPU      0.04s WALL (       1 calls)
     hinit0       :      0.16s CPU      0.17s WALL (       1 calls)

     Called by electrons:
     c_bands      :     15.66s CPU     15.71s WALL (       1 calls)
     v_of_rho     :      0.02s CPU      0.03s WALL (       1 calls)
     v_h          :      0.00s CPU      0.00s WALL (       1 calls)
     v_xc         :      0.02s CPU      0.03s WALL (       1 calls)
     newd         :      0.05s CPU      0.06s WALL (       1 calls)

     Called by c_bands:
     init_us_2    :      0.03s CPU      0.03s WALL (      91 calls)
     init_us_2:cp :      0.03s CPU      0.03s WALL (      91 calls)
     cegterg      :     14.82s CPU     14.85s WALL (     207 calls)

     Called by sum_band:

     Called by *egterg:
     cdiaghg      :      0.23s CPU      0.23s WALL (    3275 calls)
     cegterg:over :      0.65s CPU      0.65s WALL (    3184 calls)
     cegterg:upda :      0.17s CPU      0.18s WALL (    3184 calls)
     cegterg:last :      0.37s CPU      0.38s WALL (    2182 calls)
     h_psi        :     13.37s CPU     13.40s WALL (    3482 calls)
     s_psi        :      0.35s CPU      0.35s WALL (    3482 calls)
     g_psi        :      0.08s CPU      0.08s WALL (    3184 calls)

     Called by h_psi:
     h_psi:calbec :      0.38s CPU      0.38s WALL (    3482 calls)
     vloc_psi     :     12.59s CPU     12.62s WALL (    3482 calls)
     add_vuspsi   :      0.36s CPU      0.37s WALL (    3482 calls)

     General routines
     calbec       :      0.37s CPU      0.37s WALL (    3482 calls)
     fft          :      0.01s CPU      0.01s WALL (      13 calls)
     ffts         :      0.00s CPU      0.00s WALL (       1 calls)
     fftw         :     11.80s CPU     11.83s WALL (   36928 calls)
     interpolate  :      0.00s CPU      0.00s WALL (       1 calls)
     davcio       :      0.02s CPU      0.02s WALL (     182 calls)
 
     Parallel routines
 
     PWSCF        :     16.06s CPU     16.18s WALL

 
   This run was terminated on:  14:33:36  27Oct2023            

=------------------------------------------------------------------------------=
   JOB DONE.
=------------------------------------------------------------------------------=
