
     Program BANDS v.7.0 starts on 27Oct2023 at 14:33:36 

     This program is part of the open-source Quantum ESPRESSO suite
     for quantum simulation of materials; please cite
         "P. Giannozzi et al., J. Phys.:Condens. Matter 21 395502 (2009);
         "P. Giannozzi et al., J. Phys.:Condens. Matter 29 465901 (2017);
         "P. Giannozzi et al., J. Chem. Phys. 152 154105 (2020);
          URL http://www.quantum-espresso.org", 
     in publications or presentations arising from this work. More details at
     http://www.quantum-espresso.org/quote

     Parallel version (MPI), running on     1 processors

     MPI processes distributed on     1 nodes
     13175 MiB available memory on the printing compute node when the environment starts
 

     Reading xml data from directory:

     ./tmp/silicon.save/

     IMPORTANT: XC functional enforced from input :
     Exchange-correlation= PBE
                           (   1   4   3   4   0   0   0)
     Any further DFT definition will be discarded
     Please, verify this is what you really want

 
     G-vector sticks info
     --------------------
     sticks:   dense  smooth     PW     G-vecs:    dense   smooth      PW
     Sum        1417     721    211                35749    12627    2085
 
     Using Slab Decomposition
 
     Reading collected, re-writing distributed wavefunctions
     high-symmetry point:  0.5000 0.5000 0.5000   x coordinate   0.0000
     high-symmetry point:  0.0000 0.0000 0.0000   x coordinate   0.8660
     high-symmetry point:  1.0000 0.0000 0.0000   x coordinate   1.8660
     high-symmetry point:  1.0000 0.2500 0.2500   x coordinate   2.2196
     high-symmetry point:  0.0000 0.0000 0.0000   x coordinate   3.2802

     Plottable bands (eV) written to file si_bands.dat.gnu
     Bands written to file si_bands.dat

 **************************************************************************

                    xk=(   0.50000,   0.50000,   0.50000  )

     zone border point and non-symmorphic group 
     symmetry decomposition not available

 **************************************************************************

 **************************************************************************

                    xk=(   0.47500,   0.47500,   0.47500  )

     point group C_3v (3m)  
     there are  3 classes
     the character table:

       E     2C3   3s_v 
A_1    1.00  1.00  1.00
A_2    1.00  1.00 -1.00
E      2.00 -1.00  0.00

     the symmetry operations in each class and the name of the first element:

     E        1
                                                                 
     2C3      2    3
                                                                 
     3s_v     4    5    6
                                                                 

     Band symmetry, C_3v (3m)   point group:

     e(  1 -  1) =     -3.36519  eV     1   --> A_1  L_1       
     e(  2 -  2) =     -0.62280  eV     1   --> A_1  L_1       
     e(  3 -  4) =      5.16369  eV     2   --> E    L_3       
     e(  5 -  5) =      7.97222  eV     1   --> A_1  L_1       
     e(  6 -  7) =      9.71277  eV     2   --> E    L_3       
     e(  8 -  8) =     14.13729  eV     1   --> A_1  L_1       

 **************************************************************************

 **************************************************************************

                    xk=(   0.45000,   0.45000,   0.45000  )

     Band symmetry, C_3v (3m)   point group:

     e(  1 -  1) =     -3.46655  eV     1   --> A_1  L_1       
     e(  2 -  2) =     -0.47456  eV     1   --> A_1  L_1       
     e(  3 -  4) =      5.17725  eV     2   --> E    L_3       
     e(  5 -  5) =      7.98765  eV     1   --> A_1  L_1       
     e(  6 -  7) =      9.72873  eV     2   --> E    L_3       
     e(  8 -  8) =     14.16173  eV     1   --> A_1  L_1       

 **************************************************************************

 **************************************************************************

                    xk=(   0.42500,   0.42500,   0.42500  )

     Band symmetry, C_3v (3m)   point group:

     e(  1 -  1) =     -3.61472  eV     1   --> A_1  L_1       
     e(  2 -  2) =     -0.24838  eV     1   --> A_1  L_1       
     e(  3 -  4) =      5.19984  eV     2   --> E    L_3       
     e(  5 -  5) =      8.01329  eV     1   --> A_1  L_1       
     e(  6 -  7) =      9.75409  eV     2   --> E    L_3       
     e(  8 -  8) =     14.20017  eV     1   --> A_1  L_1       

 **************************************************************************

 **************************************************************************

                    xk=(   0.40000,   0.40000,   0.40000  )

     Band symmetry, C_3v (3m)   point group:

     e(  1 -  1) =     -3.79106  eV     1   --> A_1  L_1       
     e(  2 -  2) =      0.03689  eV     1   --> A_1  L_1       
     e(  3 -  4) =      5.23143  eV     2   --> E    L_3       
     e(  5 -  5) =      8.04903  eV     1   --> A_1  L_1       
     e(  6 -  7) =      9.78684  eV     2   --> E    L_3       
     e(  8 -  8) =     14.24809  eV     1   --> A_1  L_1       

 **************************************************************************

 **************************************************************************

                    xk=(   0.37500,   0.37500,   0.37500  )

     Band symmetry, C_3v (3m)   point group:

     e(  1 -  1) =     -3.98118  eV     1   --> A_1  L_1       
     e(  2 -  2) =      0.36659  eV     1   --> A_1  L_1       
     e(  3 -  4) =      5.27195  eV     2   --> E    L_3       
     e(  5 -  5) =      8.09467  eV     1   --> A_1  L_1       
     e(  6 -  7) =      9.82403  eV     2   --> E    L_3       
     e(  8 -  8) =     14.29586  eV     1   --> A_1  L_1       

 **************************************************************************

 **************************************************************************

                    xk=(   0.35000,   0.35000,   0.35000  )

     Band symmetry, C_3v (3m)   point group:

     e(  1 -  1) =     -4.17523  eV     1   --> A_1  L_1       
     e(  2 -  2) =      0.73049  eV     1   --> A_1  L_1       
     e(  3 -  4) =      5.32133  eV     2   --> E    L_3       
     e(  5 -  5) =      8.14993  eV     1   --> A_1  L_1       
     e(  6 -  7) =      9.86154  eV     2   --> E    L_3       
     e(  8 -  8) =     14.32214  eV     1   --> A_1  L_1       

 **************************************************************************

 **************************************************************************

                    xk=(   0.32500,   0.32500,   0.32500  )

     Band symmetry, C_3v (3m)   point group:

     e(  1 -  1) =     -4.36672  eV     1   --> A_1  L_1       
     e(  2 -  2) =      1.12159  eV     1   --> A_1  L_1       
     e(  3 -  4) =      5.37937  eV     2   --> E    L_3       
     e(  5 -  5) =      8.21442  eV     1   --> A_1  L_1       
     e(  6 -  7) =      9.89397  eV     2   --> E    L_3       
     e(  8 -  8) =     14.28120  eV     1   --> A_1  L_1       

 **************************************************************************

 **************************************************************************

                    xk=(   0.30000,   0.30000,   0.30000  )

     Band symmetry, C_3v (3m)   point group:

     e(  1 -  1) =     -4.55139  eV     1   --> A_1  L_1       
     e(  2 -  2) =      1.53494  eV     1   --> A_1  L_1       
     e(  3 -  4) =      5.44583  eV     2   --> E    L_3       
     e(  5 -  5) =      8.28757  eV     1   --> A_1  L_1       
     e(  6 -  7) =      9.91468  eV     2   --> E    L_3       
     e(  8 -  8) =     13.99423  eV     1   -->   ?

 **************************************************************************

 **************************************************************************

                    xk=(   0.27500,   0.27500,   0.27500  )

     Band symmetry, C_3v (3m)   point group:

     e(  1 -  1) =     -4.72635  eV     1   --> A_1  L_1       
     e(  2 -  2) =      1.96682  eV     1   --> A_1  L_1       
     e(  3 -  4) =      5.52032  eV     2   --> E    L_3       
     e(  5 -  5) =      8.36861  eV     1   --> A_1  L_1       
     e(  6 -  7) =      9.91638  eV     2   --> E    L_3       
     e(  8 -  8) =     13.75903  eV     1   -->   ?

 **************************************************************************

 **************************************************************************

                    xk=(   0.25000,   0.25000,   0.25000  )

     Band symmetry, C_3v (3m)   point group:

     e(  1 -  1) =     -4.88963  eV     1   --> A_1  L_1       
     e(  2 -  2) =      2.41413  eV     1   --> A_1  L_1       
     e(  3 -  4) =      5.60224  eV     2   --> E    L_3       
     e(  5 -  5) =      8.45644  eV     1   --> A_1  L_1       
     e(  6 -  7) =      9.89220  eV     2   --> E    L_3       
     e(  8 -  8) =     13.42375  eV     1   --> A_1  L_1       

 **************************************************************************

 **************************************************************************

                    xk=(   0.22500,   0.22500,   0.22500  )

     Band symmetry, C_3v (3m)   point group:

     e(  1 -  1) =     -5.03986  eV     1   --> A_1  L_1       
     e(  2 -  2) =      2.87400  eV     1   --> A_1  L_1       
     e(  3 -  4) =      5.69076  eV     2   --> E    L_3       
     e(  5 -  5) =      8.54955  eV     1   --> A_1  L_1       
     e(  6 -  7) =      9.83766  eV     2   --> E    L_3       
     e(  8 -  8) =     13.00243  eV     1   --> A_1  L_1       

 **************************************************************************

 **************************************************************************

                    xk=(   0.20000,   0.20000,   0.20000  )

     Band symmetry, C_3v (3m)   point group:

     e(  1 -  1) =     -5.17602  eV     1   --> A_1  L_1       
     e(  2 -  2) =      3.34341  eV     1   --> A_1  L_1       
     e(  3 -  4) =      5.78469  eV     2   --> E    L_3       
     e(  5 -  5) =      8.64589  eV     1   --> A_1  L_1       
     e(  6 -  7) =      9.75239  eV     2   --> E    L_3       
     e(  8 -  8) =     12.56309  eV     1   --> A_1  L_1       

 **************************************************************************

 **************************************************************************

                    xk=(   0.17500,   0.17500,   0.17500  )

     Band symmetry, C_3v (3m)   point group:

     e(  1 -  1) =     -5.29739  eV     1   --> A_1  L_1       
     e(  2 -  2) =      3.81886  eV     1   --> A_1  L_1       
     e(  3 -  4) =      5.88239  eV     2   --> E    L_3       
     e(  5 -  5) =      8.74257  eV     1   --> A_1  L_1       
     e(  6 -  7) =      9.64077  eV     2   --> E    L_3       
     e(  8 -  8) =     12.11574  eV     1   --> A_1  L_1       

 **************************************************************************

 **************************************************************************

                    xk=(   0.15000,   0.15000,   0.15000  )

     Band symmetry, C_3v (3m)   point group:

     e(  1 -  1) =     -5.40342  eV     1   --> A_1  L_1       
     e(  2 -  2) =      4.29576  eV     1   --> A_1  L_1       
     e(  3 -  4) =      5.98158  eV     2   --> E    L_3       
     e(  5 -  5) =      8.83551  eV     1   --> A_1  L_1       
     e(  6 -  7) =      9.51103  eV     2   --> E    L_3       
     e(  8 -  8) =     11.66780  eV     1   --> A_1  L_1       

 **************************************************************************

 **************************************************************************

                    xk=(   0.12500,   0.12500,   0.12500  )

     Band symmetry, C_3v (3m)   point group:

     e(  1 -  1) =     -5.49370  eV     1   --> A_1  L_1       
     e(  2 -  2) =      4.76763  eV     1   --> A_1  L_1       
     e(  3 -  4) =      6.07918  eV     2   --> E    L_3       
     e(  5 -  5) =      8.91887  eV     1   --> A_1  L_1       
     e(  6 -  7) =      9.37354  eV     2   --> E    L_3       
     e(  8 -  8) =     11.22819  eV     1   --> A_1  L_1       

 **************************************************************************

 **************************************************************************

                    xk=(   0.10000,   0.10000,   0.10000  )

     Band symmetry, C_3v (3m)   point group:

     e(  1 -  1) =     -5.56793  eV     1   --> A_1  L_1       
     e(  2 -  2) =      5.22450  eV     1   --> A_1  L_1       
     e(  3 -  4) =      6.17115  eV     2   --> E    L_3       
     e(  5 -  5) =      8.98407  eV     1   --> A_1  L_1       
     e(  6 -  7) =      9.23941  eV     2   --> E    L_3       
     e(  8 -  8) =     10.81096  eV     1   --> A_1  L_1       

 **************************************************************************

 **************************************************************************

                    xk=(   0.07500,   0.07500,   0.07500  )

     Band symmetry, C_3v (3m)   point group:

     e(  1 -  1) =     -5.62588  eV     1   --> A_1  L_1       
     e(  2 -  2) =      5.64995  eV     1   --> A_1  L_1       
     e(  3 -  4) =      6.25237  eV     2   --> E    L_3       
     e(  5 -  5) =      9.01890  eV     1   --> A_1  L_1       
     e(  6 -  7) =      9.11963  eV     2   --> E    L_3       
     e(  8 -  8) =     10.43972  eV     1   --> A_1  L_1       

 **************************************************************************

 **************************************************************************

                    xk=(   0.05000,   0.05000,   0.05000  )

     Band symmetry, C_3v (3m)   point group:

     e(  1 -  1) =     -5.66738  eV     1   --> A_1  L_1       
     e(  2 -  2) =      6.01590  eV     1   --> A_1  L_1       
     e(  3 -  4) =      6.31688  eV     2   --> E    L_3       
     e(  5 -  5) =      9.01097  eV     1   --> A_1  L_1       
     e(  6 -  7) =      9.02456  eV     2   --> E    L_3       
     e(  8 -  8) =     10.14997  eV     1   --> A_1  L_1       

 **************************************************************************

 **************************************************************************

                    xk=(   0.02500,   0.02500,   0.02500  )

     Band symmetry, C_3v (3m)   point group:

     e(  1 -  1) =     -5.69232  eV     1   --> A_1  L_1       
     e(  2 -  2) =      6.27633  eV     1   --> A_1  L_1       
     e(  3 -  4) =      6.35873  eV     2   --> E    L_3       
     e(  5 -  6) =      8.96323  eV     2   --> E    L_3       
     e(  7 -  7) =      8.96852  eV     1   --> A_1  L_1       
     e(  8 -  8) =      9.97500  eV     1   --> A_1  L_1       

 **************************************************************************

 **************************************************************************

                    xk=(   0.00000,   0.00000,   0.00000  )

     point group O_h (m-3m) 
     there are 10 classes
     the character table:

       E     8C3   3C2   6C4   6C2'  i     8S6   3s_h  6S4   6s_d 
A_1g   1.00  1.00  1.00  1.00  1.00  1.00  1.00  1.00  1.00  1.00
A_2g   1.00  1.00  1.00 -1.00 -1.00  1.00  1.00  1.00 -1.00 -1.00
E_g    2.00 -1.00  2.00  0.00  0.00  2.00 -1.00  2.00  0.00  0.00
T_1g   3.00  0.00 -1.00  1.00 -1.00  3.00  0.00 -1.00  1.00 -1.00
T_2g   3.00  0.00 -1.00 -1.00  1.00  3.00  0.00 -1.00 -1.00  1.00
A_1u   1.00  1.00  1.00  1.00  1.00 -1.00 -1.00 -1.00 -1.00 -1.00
A_2u   1.00  1.00  1.00 -1.00 -1.00 -1.00 -1.00 -1.00  1.00  1.00
E_u    2.00 -1.00  2.00  0.00  0.00 -2.00  1.00 -2.00  0.00  0.00
T_1u   3.00  0.00 -1.00  1.00 -1.00 -3.00  0.00  1.00 -1.00  1.00
T_2u   3.00  0.00 -1.00 -1.00  1.00 -3.00  0.00  1.00  1.00 -1.00

     the symmetry operations in each class and the name of the first element:

     E        1
                                                                 
     8C3     17   19   20   18   24   21   22   23
                                                                 
     3C2      2    4    3
                                                                 
     6C4      7    8   15   16   12   11
                                                                 
     6C2'     5    6   14   13   10    9
                                                                 
     i       25
                                                                 
     8S6     41   43   44   42   48   45   46   47
                                                                 
     3s_h    26   28   27
                                                                 
     6S4     31   32   39   40   36   35
                                                                 
     6s_d    29   30   38   37   34   33
                                                                 

     Band symmetry, O_h (m-3m)  point group:

     e(  1 -  1) =     -5.70064  eV     1   --> A_1g G_1   G_1+
     e(  2 -  4) =      6.37329  eV     3   --> T_2g G_25' G_5+
     e(  5 -  7) =      8.94202  eV     3   --> T_1u G_15  G_4-
     e(  8 -  8) =      9.91930  eV     1   --> A_2u G_2'  G_2-

 **************************************************************************

 **************************************************************************

                    xk=(   0.03333,   0.00000,   0.00000  )

     point group C_4v (4mm) 
     there are  5 classes
     the character table:

       E     2C4   C2    2s_v  2s_d 
A_1    1.00  1.00  1.00  1.00  1.00
A_2    1.00  1.00  1.00 -1.00 -1.00
B_1    1.00 -1.00  1.00  1.00 -1.00
B_2    1.00 -1.00  1.00 -1.00  1.00
E      2.00  0.00 -2.00  0.00  0.00

     the symmetry operations in each class and the name of the first element:

     E        1
                                                                 
     2C4      3    4
                                                                 
     C2       2
                                                                 
     2s_v     5    6
                                                                 
     2s_d     7    8
                                                                 

     Band symmetry, C_4v (4mm)  point group:

     e(  1 -  1) =     -5.69571  eV     1   --> A_1  G_1 D_1   
     e(  2 -  2) =      6.34067  eV     1   --> B_2  G_4 D_2'  
     e(  3 -  4) =      6.35161  eV     2   --> E    G_5 D_5   
     e(  5 -  5) =      8.92971  eV     1   --> A_1  G_1 D_1   
     e(  6 -  7) =      8.96974  eV     2   --> E    G_5 D_5   
     e(  8 -  8) =      9.95123  eV     1   --> B_2  G_4 D_2'  

 **************************************************************************

 **************************************************************************

                    xk=(   0.06667,   0.00000,   0.00000  )

     Band symmetry, C_4v (4mm)  point group:

     e(  1 -  1) =     -5.68091  eV     1   --> A_1  G_1 D_1   
     e(  2 -  2) =      6.24641  eV     1   --> B_2  G_4 D_2'  
     e(  3 -  4) =      6.28938  eV     2   --> E    G_5 D_5   
     e(  5 -  5) =      8.89351  eV     1   --> A_1  G_1 D_1   
     e(  6 -  7) =      9.05020  eV     2   --> E    G_5 D_5   
     e(  8 -  8) =     10.04285  eV     1   --> B_2  G_4 D_2'  

 **************************************************************************

 **************************************************************************

                    xk=(   0.10000,   0.00000,   0.00000  )

     Band symmetry, C_4v (4mm)  point group:

     e(  1 -  1) =     -5.65627  eV     1   --> A_1  G_1 D_1   
     e(  2 -  2) =      6.09946  eV     1   --> B_2  G_4 D_2'  
     e(  3 -  4) =      6.19351  eV     2   --> E    G_5 D_5   
     e(  5 -  5) =      8.83527  eV     1   --> A_1  G_1 D_1   
     e(  6 -  7) =      9.17638  eV     2   --> E    G_5 D_5   
     e(  8 -  8) =     10.18296  eV     1   --> B_2  G_4 D_2'  

 **************************************************************************

 **************************************************************************

                    xk=(   0.13333,   0.00000,   0.00000  )

     Band symmetry, C_4v (4mm)  point group:

     e(  1 -  1) =     -5.62179  eV     1   --> A_1  G_1 D_1   
     e(  2 -  2) =      5.91084  eV     1   --> B_2  G_4 D_2'  
     e(  3 -  4) =      6.07247  eV     2   --> E    G_5 D_5   
     e(  5 -  5) =      8.75776  eV     1   --> A_1  G_1 D_1   
     e(  6 -  7) =      9.33974  eV     2   --> E    G_5 D_5   
     e(  8 -  8) =     10.35614  eV     1   --> B_2  G_4 D_2'  

 **************************************************************************

 **************************************************************************

                    xk=(   0.16667,   0.00000,   0.00000  )

     Band symmetry, C_4v (4mm)  point group:

     e(  1 -  1) =     -5.57749  eV     1   --> A_1  G_1 D_1   
     e(  2 -  2) =      5.69083  eV     1   --> B_2  G_4 D_2'  
     e(  3 -  4) =      5.93414  eV     2   --> E    G_5 D_5   
     e(  5 -  5) =      8.66431  eV     1   --> A_1  G_1 D_1   
     e(  6 -  7) =      9.53232  eV     2   --> E    G_5 D_5   
     e(  8 -  8) =     10.54396  eV     1   --> B_2  G_4 D_2'  

 **************************************************************************

 **************************************************************************

                    xk=(   0.20000,   0.00000,   0.00000  )

     Band symmetry, C_4v (4mm)  point group:

     e(  1 -  1) =     -5.52341  eV     1   --> A_1  G_1 D_1   
     e(  2 -  2) =      5.44775  eV     1   --> B_2  G_4 D_2'  
     e(  3 -  4) =      5.78491  eV     2   --> E    G_5 D_5   
     e(  5 -  5) =      8.55838  eV     1   --> A_1  G_1 D_1   
     e(  6 -  7) =      9.74761  eV     2   --> E    G_5 D_5   
     e(  8 -  8) =     10.72335  eV     1   --> B_2  G_4 D_2'  

 **************************************************************************

 **************************************************************************

                    xk=(   0.23333,   0.00000,   0.00000  )

     Band symmetry, C_4v (4mm)  point group:

     e(  1 -  1) =     -5.45957  eV     1   --> A_1  G_1 D_1   
     e(  2 -  2) =      5.18788  eV     1   --> B_2  G_4 D_2'  
     e(  3 -  4) =      5.62961  eV     2   --> E    G_5 D_5   
     e(  5 -  5) =      8.44331  eV     1   --> A_1  G_1 D_1   
     e(  6 -  7) =      9.98065  eV     2   --> E    G_5 D_5   
     e(  8 -  8) =     10.86300  eV     1   --> B_2  G_4 D_2'  

 **************************************************************************

 **************************************************************************

                    xk=(   0.26667,   0.00000,   0.00000  )

     Band symmetry, C_4v (4mm)  point group:

     e(  1 -  1) =     -5.38601  eV     1   --> A_1  G_1 D_1   
     e(  2 -  2) =      4.91579  eV     1   --> B_2  G_4 D_2'  
     e(  3 -  4) =      5.47183  eV     2   --> E    G_5 D_5   
     e(  5 -  5) =      8.32216  eV     1   --> A_1  G_1 D_1   
     e(  6 -  7) =     10.22772  eV     2   --> E    G_5 D_5   
     e(  8 -  8) =     10.92431  eV     1   --> B_2  G_4 D_2'  

 **************************************************************************

 **************************************************************************

                    xk=(   0.30000,   0.00000,   0.00000  )

     Band symmetry, C_4v (4mm)  point group:

     e(  1 -  1) =     -5.30278  eV     1   --> A_1  G_1 D_1   
     e(  2 -  2) =      4.63475  eV     1   --> B_2  G_4 D_2'  
     e(  3 -  4) =      5.31417  eV     2   --> E    G_5 D_5   
     e(  5 -  5) =      8.19765  eV     1   --> A_1  G_1 D_1   
     e(  6 -  7) =     10.48604  eV     2   --> E    G_5 D_5   
     e(  8 -  8) =     10.88017  eV     1   --> B_2  G_4 D_2'  

 **************************************************************************

 **************************************************************************

                    xk=(   0.33333,   0.00000,   0.00000  )

     Band symmetry, C_4v (4mm)  point group:

     e(  1 -  1) =     -5.20993  eV     1   --> A_1  G_1 D_1   
     e(  2 -  2) =      4.34711  eV     1   --> B_2  G_4 D_2'  
     e(  3 -  4) =      5.15858  eV     2   --> E    G_5 D_5   
     e(  5 -  5) =      8.07212  eV     1   --> A_1  G_1 D_1   
     e(  6 -  6) =     10.73858  eV     1   --> B_2  G_4 D_2'  
     e(  7 -  8) =     10.75354  eV     2   --> E    G_5 D_5   

 **************************************************************************

 **************************************************************************

                    xk=(   0.36667,   0.00000,   0.00000  )

     Band symmetry, C_4v (4mm)  point group:

     e(  1 -  1) =     -5.10754  eV     1   --> A_1  G_1 D_1   
     e(  2 -  2) =      4.05459  eV     1   --> B_2  G_4 D_2'  
     e(  3 -  4) =      5.00648  eV     2   --> E    G_5 D_5   
     e(  5 -  5) =      7.94755  eV     1   --> A_1  G_1 D_1   
     e(  6 -  6) =     10.53151  eV     1   --> B_2  G_4 D_2'  
     e(  7 -  8) =     11.02863  eV     2   --> E    G_5 D_5   

 **************************************************************************

 **************************************************************************

                    xk=(   0.40000,   0.00000,   0.00000  )

     Band symmetry, C_4v (4mm)  point group:

     e(  1 -  1) =     -4.99565  eV     1   --> A_1  G_1 D_1   
     e(  2 -  2) =      3.75846  eV     1   --> B_2  G_4 D_2'  
     e(  3 -  4) =      4.85899  eV     2   --> E    G_5 D_5   
     e(  5 -  5) =      7.82563  eV     1   --> A_1  G_1 D_1   
     e(  6 -  6) =     10.28878  eV     1   --> B_2  G_4 D_2'  
     e(  7 -  8) =     11.31007  eV     2   --> E    G_5 D_5   

 **************************************************************************

 **************************************************************************

                    xk=(   0.43333,   0.00000,   0.00000  )

     Band symmetry, C_4v (4mm)  point group:

     e(  1 -  1) =     -4.87435  eV     1   --> A_1  G_1 D_1   
     e(  2 -  2) =      3.45968  eV     1   --> B_2  G_4 D_2'  
     e(  3 -  4) =      4.71695  eV     2   --> E    G_5 D_5   
     e(  5 -  5) =      7.70779  eV     1   --> A_1  G_1 D_1   
     e(  6 -  6) =     10.02990  eV     1   --> B_2  G_4 D_2'  
     e(  7 -  8) =     11.59690  eV     2   --> E    G_5 D_5   

 **************************************************************************

 **************************************************************************

                    xk=(   0.46667,   0.00000,   0.00000  )

     Band symmetry, C_4v (4mm)  point group:

     e(  1 -  1) =     -4.74372  eV     1   --> A_1  G_1 D_1   
     e(  2 -  2) =      3.15901  eV     1   --> B_2  G_4 D_2'  
     e(  3 -  4) =      4.58100  eV     2   --> E    G_5 D_5   
     e(  5 -  5) =      7.59521  eV     1   --> A_1  G_1 D_1   
     e(  6 -  6) =      9.76648  eV     1   --> B_2  G_4 D_2'  
     e(  7 -  8) =     11.88837  eV     2   --> E    G_5 D_5   

 **************************************************************************

 **************************************************************************

                    xk=(   0.50000,   0.00000,   0.00000  )

     Band symmetry, C_4v (4mm)  point group:

     e(  1 -  1) =     -4.60387  eV     1   --> A_1  G_1 D_1   
     e(  2 -  2) =      2.85707  eV     1   --> B_2  G_4 D_2'  
     e(  3 -  4) =      4.45169  eV     2   --> E    G_5 D_5   
     e(  5 -  5) =      7.48891  eV     1   --> A_1  G_1 D_1   
     e(  6 -  6) =      9.50545  eV     1   --> B_2  G_4 D_2'  
     e(  7 -  8) =     12.18387  eV     2   --> E    G_5 D_5   

 **************************************************************************

 **************************************************************************

                    xk=(   0.53333,   0.00000,   0.00000  )

     Band symmetry, C_4v (4mm)  point group:

     e(  1 -  1) =     -4.45488  eV     1   --> A_1  G_1 D_1   
     e(  2 -  2) =      2.55442  eV     1   --> B_2  G_4 D_2'  
     e(  3 -  4) =      4.32943  eV     2   --> E    G_5 D_5   
     e(  5 -  5) =      7.38976  eV     1   --> A_1  G_1 D_1   
     e(  6 -  6) =      9.25114  eV     1   --> B_2  G_4 D_2'  
     e(  7 -  8) =     12.48294  eV     2   --> E    G_5 D_5   

 **************************************************************************

 **************************************************************************

                    xk=(   0.56667,   0.00000,   0.00000  )

     Band symmetry, C_4v (4mm)  point group:

     e(  1 -  1) =     -4.29689  eV     1   --> A_1  G_1 D_1   
     e(  2 -  2) =      2.25154  eV     1   --> B_2  G_4 D_2'  
     e(  3 -  4) =      4.21457  eV     2   --> E    G_5 D_5   
     e(  5 -  5) =      7.29852  eV     1   --> A_1  G_1 D_1   
     e(  6 -  6) =      9.00634  eV     1   --> B_2  G_4 D_2'  
     e(  7 -  8) =     12.78520  eV     2   --> E    G_5 D_5   

 **************************************************************************

 **************************************************************************

                    xk=(   0.60000,   0.00000,   0.00000  )

     Band symmetry, C_4v (4mm)  point group:

     e(  1 -  1) =     -4.13000  eV     1   --> A_1  G_1 D_1   
     e(  2 -  2) =      1.94892  eV     1   --> B_2  G_4 D_2'  
     e(  3 -  4) =      4.10738  eV     2   --> E    G_5 D_5   
     e(  5 -  5) =      7.21583  eV     1   --> A_1  G_1 D_1   
     e(  6 -  6) =      8.77288  eV     1   --> B_2  G_4 D_2'  
     e(  7 -  8) =     13.09039  eV     2   --> E    G_5 D_5   

 **************************************************************************

 **************************************************************************

                    xk=(   0.63333,   0.00000,   0.00000  )

     Band symmetry, C_4v (4mm)  point group:

     e(  1 -  1) =     -3.95436  eV     1   --> A_1  G_1 D_1   
     e(  2 -  2) =      1.64699  eV     1   --> B_2  G_4 D_2'  
     e(  3 -  4) =      4.00811  eV     2   --> E    G_5 D_5   
     e(  5 -  5) =      7.14226  eV     1   --> A_1  G_1 D_1   
     e(  6 -  6) =      8.55201  eV     1   --> B_2  G_4 D_2'  
     e(  7 -  8) =     13.39830  eV     2   --> E    G_5 D_5   

 **************************************************************************

 **************************************************************************

                    xk=(   0.66667,   0.00000,   0.00000  )

     Band symmetry, C_4v (4mm)  point group:

     e(  1 -  1) =     -3.77012  eV     1   --> A_1  G_1 D_1   
     e(  2 -  2) =      1.34622  eV     1   --> B_2  G_4 D_2'  
     e(  3 -  4) =      3.91696  eV     2   --> E    G_5 D_5   
     e(  5 -  5) =      7.07831  eV     1   --> A_1  G_1 D_1   
     e(  6 -  6) =      8.34455  eV     1   --> B_2  G_4 D_2'  
     e(  7 -  8) =     13.70872  eV     2   --> E    G_5 D_5   

 **************************************************************************

 **************************************************************************

                    xk=(   0.70000,   0.00000,   0.00000  )

     Band symmetry, C_4v (4mm)  point group:

     e(  1 -  1) =     -3.57745  eV     1   --> A_1  G_1 D_1   
     e(  2 -  2) =      1.04706  eV     1   --> B_2  G_4 D_2'  
     e(  3 -  4) =      3.83407  eV     2   --> E    G_5 D_5   
     e(  5 -  5) =      7.02444  eV     1   --> A_1  G_1 D_1   
     e(  6 -  6) =      8.15102  eV     1   --> B_2  G_4 D_2'  
     e(  7 -  8) =     14.02152  eV     2   --> E    G_5 D_5   

 **************************************************************************

 **************************************************************************

                    xk=(   0.73333,   0.00000,   0.00000  )

     Band symmetry, C_4v (4mm)  point group:

     e(  1 -  1) =     -3.37651  eV     1   --> A_1  G_1 D_1   
     e(  2 -  2) =      0.74997  eV     1   --> B_2  G_4 D_2'  
     e(  3 -  4) =      3.75959  eV     2   --> E    G_5 D_5   
     e(  5 -  5) =      6.98107  eV     1   --> A_1  G_1 D_1   
     e(  6 -  6) =      7.97177  eV     1   --> B_2  G_4 D_2'  
     e(  7 -  8) =     14.33652  eV     2   --> E    G_5 D_5   

 **************************************************************************

 **************************************************************************

                    xk=(   0.76667,   0.00000,   0.00000  )

     Band symmetry, C_4v (4mm)  point group:

     e(  1 -  1) =     -3.16750  eV     1   --> A_1  G_1 D_1   
     e(  2 -  2) =      0.45541  eV     1   --> B_2  G_4 D_2'  
     e(  3 -  4) =      3.69364  eV     2   --> E    G_5 D_5   
     e(  5 -  5) =      6.94857  eV     1   --> A_1  G_1 D_1   
     e(  6 -  6) =      7.80696  eV     1   --> B_2  G_4 D_2'  
     e(  7 -  8) =     14.65349  eV     2   --> E    G_5 D_5   

 **************************************************************************

 **************************************************************************

                    xk=(   0.80000,   0.00000,   0.00000  )

     Band symmetry, C_4v (4mm)  point group:

     e(  1 -  1) =     -2.95062  eV     1   --> A_1  G_1 D_1   
     e(  2 -  2) =      0.16385  eV     1   --> B_2  G_4 D_2'  
     e(  3 -  4) =      3.63630  eV     2   --> E    G_5 D_5   
     e(  5 -  5) =      6.92729  eV     1   --> A_1  G_1 D_1   
     e(  6 -  6) =      7.65664  eV     1   --> B_2  G_4 D_2'  
     e(  7 -  8) =     14.97202  eV     2   --> E    G_5 D_5   

 **************************************************************************

 **************************************************************************

                    xk=(   0.83333,   0.00000,   0.00000  )

     Band symmetry, C_4v (4mm)  point group:

     e(  1 -  1) =     -2.72612  eV     1   --> A_1  G_1 D_1   
     e(  2 -  2) =     -0.12428  eV     1   --> B_2  G_4 D_2'  
     e(  3 -  4) =      3.58766  eV     2   --> E    G_5 D_5   
     e(  5 -  5) =      6.91759  eV     1   --> A_1  G_1 D_1   
     e(  6 -  6) =      7.52078  eV     1   --> B_2  G_4 D_2'  
     e(  7 -  8) =     15.29137  eV     2   --> E    G_5 D_5   

 **************************************************************************

 **************************************************************************

                    xk=(   0.86667,   0.00000,   0.00000  )

     Band symmetry, C_4v (4mm)  point group:

     e(  1 -  1) =     -2.49422  eV     1   --> A_1  G_1 D_1   
     e(  2 -  2) =     -0.40852  eV     1   --> B_2  G_4 D_2'  
     e(  3 -  4) =      3.54779  eV     2   --> E    G_5 D_5   
     e(  5 -  5) =      6.91976  eV     1   --> A_1  G_1 D_1   
     e(  6 -  6) =      7.39927  eV     1   --> B_2  G_4 D_2'  
     e(  7 -  8) =     15.61007  eV     2   --> E    G_5 D_5   

 **************************************************************************

 **************************************************************************

                    xk=(   0.90000,   0.00000,   0.00000  )

     Band symmetry, C_4v (4mm)  point group:

     e(  1 -  1) =     -2.25518  eV     1   --> A_1  G_1 D_1   
     e(  2 -  2) =     -0.68844  eV     1   --> B_2  G_4 D_2'  
     e(  3 -  4) =      3.51672  eV     2   --> E    G_5 D_5   
     e(  5 -  5) =      6.93412  eV     1   --> A_1  G_1 D_1   
     e(  6 -  6) =      7.29196  eV     1   --> B_2  G_4 D_2'  
     e(  7 -  8) =     15.92484  eV     2   --> E    G_5 D_5   

 **************************************************************************

 **************************************************************************

                    xk=(   0.93333,   0.00000,   0.00000  )

     Band symmetry, C_4v (4mm)  point group:

     e(  1 -  1) =     -2.00930  eV     1   --> A_1  G_1 D_1   
     e(  2 -  2) =     -0.96363  eV     1   --> B_2  G_4 D_2'  
     e(  3 -  4) =      3.49451  eV     2   --> E    G_5 D_5   
     e(  5 -  5) =      6.96096  eV     1   --> A_1  G_1 D_1   
     e(  6 -  6) =      7.19866  eV     1   --> B_2  G_4 D_2'  
     e(  7 -  8) =     16.22719  eV     2   --> E    G_5 D_5   

 **************************************************************************

 **************************************************************************

                    xk=(   0.96667,   0.00000,   0.00000  )

     Band symmetry, C_4v (4mm)  point group:

     e(  1 -  1) =     -1.75687  eV     1   --> A_1  G_1 D_1   
     e(  2 -  2) =     -1.23368  eV     1   --> B_2  G_4 D_2'  
     e(  3 -  4) =      3.48117  eV     2   --> E    G_5 D_5   
     e(  5 -  5) =      7.00057  eV     1   --> A_1  G_1 D_1   
     e(  6 -  6) =      7.11916  eV     1   --> B_2  G_4 D_2'  
     e(  7 -  8) =     16.48945  eV     2   --> E    G_5 D_5   

 **************************************************************************

 **************************************************************************

                    xk=(   1.00000,   0.00000,   0.00000  )

     zone border point and non-symmorphic group 
     symmetry decomposition not available

 **************************************************************************

 **************************************************************************

                    xk=(   1.00000,   0.02500,   0.02500  )

     zone border point and non-symmorphic group 
     symmetry decomposition not available

 **************************************************************************

 **************************************************************************

                    xk=(   1.00000,   0.05000,   0.05000  )

     zone border point and non-symmorphic group 
     symmetry decomposition not available

 **************************************************************************

 **************************************************************************

                    xk=(   1.00000,   0.07500,   0.07500  )

     zone border point and non-symmorphic group 
     symmetry decomposition not available

 **************************************************************************

 **************************************************************************

                    xk=(   1.00000,   0.10000,   0.10000  )

     zone border point and non-symmorphic group 
     symmetry decomposition not available

 **************************************************************************

 **************************************************************************

                    xk=(   1.00000,   0.12500,   0.12500  )

     zone border point and non-symmorphic group 
     symmetry decomposition not available

 **************************************************************************

 **************************************************************************

                    xk=(   1.00000,   0.15000,   0.15000  )

     zone border point and non-symmorphic group 
     symmetry decomposition not available

 **************************************************************************

 **************************************************************************

                    xk=(   1.00000,   0.17500,   0.17500  )

     zone border point and non-symmorphic group 
     symmetry decomposition not available

 **************************************************************************

 **************************************************************************

                    xk=(   1.00000,   0.20000,   0.20000  )

     zone border point and non-symmorphic group 
     symmetry decomposition not available

 **************************************************************************

 **************************************************************************

                    xk=(   1.00000,   0.22500,   0.22500  )

     zone border point and non-symmorphic group 
     symmetry decomposition not available

 **************************************************************************

 **************************************************************************

                    xk=(   1.00000,   0.25000,   0.25000  )

     zone border point and non-symmorphic group 
     symmetry decomposition not available

 **************************************************************************

 **************************************************************************

                    xk=(   0.96667,   0.24167,   0.24167  )

     point group C_s (m)    
     there are  2 classes
     the character table:

       E     s    
A'     1.00  1.00
A''    1.00 -1.00

     the symmetry operations in each class and the name of the first element:

     E        1
                                                                 
     s        2
                                                                 

     Band symmetry, C_s (m)     point group:

     e(  1 -  1) =     -1.91517  eV     1   --> A'             
     e(  2 -  2) =     -0.90378  eV     1   --> A'             
     e(  3 -  3) =      2.03991  eV     1   --> A'             
     e(  4 -  4) =      3.88682  eV     1   --> A''            
     e(  5 -  5) =      7.52986  eV     1   --> A'             
     e(  6 -  6) =     10.35461  eV     1   --> A'             
     e(  7 -  7) =     13.93373  eV     1   --> A''            
     e(  8 -  8) =     14.34646  eV     1   --> A'             

 **************************************************************************

 **************************************************************************

                    xk=(   0.93333,   0.23333,   0.23333  )

     Band symmetry, C_s (m)     point group:

     e(  1 -  1) =     -2.00294  eV     1   --> A'             
     e(  2 -  2) =     -0.82602  eV     1   --> A'             
     e(  3 -  3) =      2.11494  eV     1   --> A'             
     e(  4 -  4) =      3.87230  eV     1   --> A''            
     e(  5 -  5) =      7.51631  eV     1   --> A'             
     e(  6 -  6) =     10.20528  eV     1   --> A'             
     e(  7 -  7) =     13.84277  eV     1   --> A''            
     e(  8 -  8) =     14.13043  eV     1   --> A'             

 **************************************************************************

 **************************************************************************

                    xk=(   0.90000,   0.22500,   0.22500  )

     Band symmetry, C_s (m)     point group:

     e(  1 -  1) =     -2.15166  eV     1   --> A'             
     e(  2 -  2) =     -0.68741  eV     1   --> A'             
     e(  3 -  3) =      2.21462  eV     1   --> A'             
     e(  4 -  4) =      3.86698  eV     1   --> A''            
     e(  5 -  5) =      7.51521  eV     1   --> A'             
     e(  6 -  6) =     10.07015  eV     1   --> A'             
     e(  7 -  7) =     13.70612  eV     1   --> A''            
     e(  8 -  8) =     13.90687  eV     1   --> A'             

 **************************************************************************

 **************************************************************************

                    xk=(   0.86667,   0.21667,   0.21667  )

     Band symmetry, C_s (m)     point group:

     e(  1 -  1) =     -2.33495  eV     1   --> A'             
     e(  2 -  2) =     -0.51075  eV     1   --> A'             
     e(  3 -  3) =      2.33505  eV     1   --> A'             
     e(  4 -  4) =      3.87099  eV     1   --> A''            
     e(  5 -  5) =      7.52619  eV     1   --> A'             
     e(  6 -  6) =      9.95021  eV     1   --> A'             
     e(  7 -  7) =     13.55363  eV     1   --> A''            
     e(  8 -  8) =     13.68229  eV     1   --> A'             

 **************************************************************************

 **************************************************************************

                    xk=(   0.83333,   0.20833,   0.20833  )

     Band symmetry, C_s (m)     point group:

     e(  1 -  1) =     -2.53593  eV     1   --> A'             
     e(  2 -  2) =     -0.31006  eV     1   --> A'             
     e(  3 -  3) =      2.47295  eV     1   --> A'             
     e(  4 -  4) =      3.88442  eV     1   --> A''            
     e(  5 -  5) =      7.54862  eV     1   --> A'             
     e(  6 -  6) =      9.84655  eV     1   --> A'             
     e(  7 -  7) =     13.39637  eV     1   --> A''            
     e(  8 -  8) =     13.45823  eV     1   --> A'             

 **************************************************************************

 **************************************************************************

                    xk=(   0.80000,   0.20000,   0.20000  )

     Band symmetry, C_s (m)     point group:

     e(  1 -  1) =     -2.74505  eV     1   --> A'             
     e(  2 -  2) =     -0.09265  eV     1   --> A'             
     e(  3 -  3) =      2.62553  eV     1   --> A'             
     e(  4 -  4) =      3.90731  eV     1   --> A''            
     e(  5 -  5) =      7.58161  eV     1   --> A'             
     e(  6 -  6) =      9.76048  eV     1   --> A'             
     e(  7 -  7) =     13.23531  eV     1   --> A'             
     e(  8 -  8) =     13.23853  eV     1   --> A''            

 **************************************************************************

 **************************************************************************

                    xk=(   0.76667,   0.19167,   0.19167  )

     Band symmetry, C_s (m)     point group:

     e(  1 -  1) =     -2.95668  eV     1   --> A'             
     e(  2 -  2) =      0.13762  eV     1   --> A'             
     e(  3 -  3) =      2.79039  eV     1   --> A'             
     e(  4 -  4) =      3.93972  eV     1   --> A''            
     e(  5 -  5) =      7.62397  eV     1   --> A'             
     e(  6 -  6) =      9.69354  eV     1   --> A'             
     e(  7 -  7) =     13.01380  eV     1   --> A'             
     e(  8 -  8) =     13.08156  eV     1   --> A''            

 **************************************************************************

 **************************************************************************

                    xk=(   0.73333,   0.18333,   0.18333  )

     Band symmetry, C_s (m)     point group:

     e(  1 -  1) =     -3.16731  eV     1   --> A'             
     e(  2 -  2) =      0.37862  eV     1   --> A'             
     e(  3 -  3) =      2.96545  eV     1   --> A'             
     e(  4 -  4) =      3.98164  eV     1   --> A''            
     e(  5 -  5) =      7.67417  eV     1   --> A'             
     e(  6 -  6) =      9.64751  eV     1   --> A'             
     e(  7 -  7) =     12.79392  eV     1   --> A'             
     e(  8 -  8) =     12.92559  eV     1   --> A''            

 **************************************************************************

 **************************************************************************

                    xk=(   0.70000,   0.17500,   0.17500  )

     Band symmetry, C_s (m)     point group:

     e(  1 -  1) =     -3.37458  eV     1   --> A'             
     e(  2 -  2) =      0.62906  eV     1   --> A'             
     e(  3 -  3) =      3.14883  eV     1   --> A'             
     e(  4 -  4) =      4.03305  eV     1   --> A''            
     e(  5 -  5) =      7.73035  eV     1   --> A'             
     e(  6 -  6) =      9.62438  eV     1   --> A'             
     e(  7 -  7) =     12.57585  eV     1   --> A'             
     e(  8 -  8) =     12.77001  eV     1   --> A''            

 **************************************************************************

 **************************************************************************

                    xk=(   0.66667,   0.16667,   0.16667  )

     Band symmetry, C_s (m)     point group:

     e(  1 -  1) =     -3.57682  eV     1   --> A'             
     e(  2 -  2) =      0.88813  eV     1   --> A'             
     e(  3 -  3) =      3.33885  eV     1   --> A'             
     e(  4 -  4) =      4.09391  eV     1   --> A''            
     e(  5 -  5) =      7.79044  eV     1   --> A'             
     e(  6 -  6) =      9.62621  eV     1   --> A'             
     e(  7 -  7) =     12.35981  eV     1   --> A'             
     e(  8 -  8) =     12.61368  eV     1   --> A''            

 **************************************************************************

 **************************************************************************

                    xk=(   0.63333,   0.15833,   0.15833  )

     Band symmetry, C_s (m)     point group:

     e(  1 -  1) =     -3.77281  eV     1   --> A'             
     e(  2 -  2) =      1.15525  eV     1   --> A'             
     e(  3 -  3) =      3.53392  eV     1   --> A'             
     e(  4 -  4) =      4.16414  eV     1   --> A''            
     e(  5 -  5) =      7.85234  eV     1   --> A'             
     e(  6 -  6) =      9.65483  eV     1   --> A'             
     e(  7 -  7) =     12.14617  eV     1   --> A'             
     e(  8 -  8) =     12.45509  eV     1   --> A''            

 **************************************************************************

 **************************************************************************

                    xk=(   0.60000,   0.15000,   0.15000  )

     Band symmetry, C_s (m)     point group:

     e(  1 -  1) =     -3.96162  eV     1   --> A'             
     e(  2 -  2) =      1.42999  eV     1   --> A'             
     e(  3 -  3) =      3.73257  eV     1   --> A'             
     e(  4 -  4) =      4.24362  eV     1   --> A''            
     e(  5 -  5) =      7.91422  eV     1   --> A'             
     e(  6 -  6) =      9.71143  eV     1   --> A'             
     e(  7 -  7) =     11.93545  eV     1   --> A'             
     e(  8 -  8) =     12.29246  eV     1   --> A''            

 **************************************************************************

 **************************************************************************

                    xk=(   0.56667,   0.14167,   0.14167  )

     Band symmetry, C_s (m)     point group:

     e(  1 -  1) =     -4.14253  eV     1   --> A'             
     e(  2 -  2) =      1.71199  eV     1   --> A'             
     e(  3 -  3) =      3.93341  eV     1   --> A'             
     e(  4 -  4) =      4.33222  eV     1   --> A''            
     e(  5 -  5) =      7.97483  eV     1   --> A'             
     e(  6 -  6) =      9.79605  eV     1   --> A'             
     e(  7 -  7) =     11.72852  eV     1   --> A'             
     e(  8 -  8) =     12.12387  eV     1   --> A''            

 **************************************************************************

 **************************************************************************

                    xk=(   0.53333,   0.13333,   0.13333  )

     Band symmetry, C_s (m)     point group:

     e(  1 -  1) =     -4.31497  eV     1   --> A'             
     e(  2 -  2) =      2.00090  eV     1   --> A'             
     e(  3 -  3) =      4.13514  eV     1   --> A'             
     e(  4 -  4) =      4.42974  eV     1   --> A''            
     e(  5 -  5) =      8.03373  eV     1   --> A'             
     e(  6 -  6) =      9.90696  eV     1   --> A'             
     e(  7 -  7) =     11.52689  eV     1   --> A'             
     e(  8 -  8) =     11.94745  eV     1   --> A''            

 **************************************************************************

 **************************************************************************

                    xk=(   0.50000,   0.12500,   0.12500  )

     Band symmetry, C_s (m)     point group:

     e(  1 -  1) =     -4.47847  eV     1   --> A'             
     e(  2 -  2) =      2.29637  eV     1   --> A'             
     e(  3 -  3) =      4.33649  eV     1   --> A'             
     e(  4 -  4) =      4.53594  eV     1   --> A''            
     e(  5 -  5) =      8.09124  eV     1   --> A'             
     e(  6 -  6) =     10.03965  eV     1   --> A'             
     e(  7 -  7) =     11.33350  eV     1   --> A'             
     e(  8 -  8) =     11.76156  eV     1   --> A''            

 **************************************************************************

 **************************************************************************

                    xk=(   0.46667,   0.11667,   0.11667  )

     Band symmetry, C_s (m)     point group:

     e(  1 -  1) =     -4.63264  eV     1   --> A'             
     e(  2 -  2) =      2.59800  eV     1   --> A'             
     e(  3 -  3) =      4.53626  eV     1   --> A'             
     e(  4 -  4) =      4.65051  eV     1   --> A''            
     e(  5 -  5) =      8.14827  eV     1   --> A'             
     e(  6 -  6) =     10.18439  eV     1   --> A'             
     e(  7 -  7) =     11.15517  eV     1   --> A'             
     e(  8 -  8) =     11.56512  eV     1   --> A''            

 **************************************************************************

 **************************************************************************

                    xk=(   0.43333,   0.10833,   0.10833  )

     Band symmetry, C_s (m)     point group:

     e(  1 -  1) =     -4.77719  eV     1   --> A'             
     e(  2 -  2) =      2.90530  eV     1   --> A'             
     e(  3 -  3) =      4.73327  eV     1   --> A'             
     e(  4 -  4) =      4.77308  eV     1   --> A''            
     e(  5 -  5) =      8.20600  eV     1   --> A'             
     e(  6 -  6) =     10.31767  eV     1   --> A'             
     e(  7 -  7) =     11.01080  eV     1   --> A'             
     e(  8 -  8) =     11.35779  eV     1   --> A''            

 **************************************************************************

 **************************************************************************

                    xk=(   0.40000,   0.10000,   0.10000  )

     Band symmetry, C_s (m)     point group:

     e(  1 -  1) =     -4.91183  eV     1   --> A'             
     e(  2 -  2) =      3.21768  eV     1   --> A'             
     e(  3 -  3) =      4.90313  eV     1   --> A''            
     e(  4 -  4) =      4.92634  eV     1   --> A'             
     e(  5 -  5) =      8.26557  eV     1   --> A'             
     e(  6 -  6) =     10.38214  eV     1   --> A'             
     e(  7 -  7) =     10.95082  eV     1   --> A'             
     e(  8 -  8) =     11.14012  eV     1   --> A''            

 **************************************************************************

 **************************************************************************

                    xk=(   0.36667,   0.09167,   0.09167  )

     Band symmetry, C_s (m)     point group:

     e(  1 -  1) =     -5.03635  eV     1   --> A'             
     e(  2 -  2) =      3.53440  eV     1   --> A'             
     e(  3 -  3) =      5.04004  eV     1   --> A''            
     e(  4 -  4) =      5.11428  eV     1   --> A'             
     e(  5 -  5) =      8.32789  eV     1   --> A'             
     e(  6 -  6) =     10.32537  eV     1   --> A'             
     e(  7 -  7) =     10.91358  eV     1   --> A''            
     e(  8 -  8) =     11.01653  eV     1   --> A'             

 **************************************************************************

 **************************************************************************

                    xk=(   0.33333,   0.08333,   0.08333  )

     Band symmetry, C_s (m)     point group:

     e(  1 -  1) =     -5.15056  eV     1   --> A'             
     e(  2 -  2) =      3.85447  eV     1   --> A'             
     e(  3 -  3) =      5.18297  eV     1   --> A''            
     e(  4 -  4) =      5.29585  eV     1   --> A'             
     e(  5 -  5) =      8.39344  eV     1   --> A'             
     e(  6 -  6) =     10.19434  eV     1   --> A'             
     e(  7 -  7) =     10.68044  eV     1   --> A''            
     e(  8 -  8) =     11.14152  eV     1   --> A'             

 **************************************************************************

 **************************************************************************

                    xk=(   0.30000,   0.07500,   0.07500  )

     Band symmetry, C_s (m)     point group:

     e(  1 -  1) =     -5.25431  eV     1   --> A'             
     e(  2 -  2) =      4.17660  eV     1   --> A'             
     e(  3 -  3) =      5.33084  eV     1   --> A''            
     e(  4 -  4) =      5.46970  eV     1   --> A'             
     e(  5 -  5) =      8.46221  eV     1   --> A'             
     e(  6 -  6) =     10.03953  eV     1   --> A'             
     e(  7 -  7) =     10.44364  eV     1   --> A''            
     e(  8 -  8) =     11.24144  eV     1   --> A'             

 **************************************************************************

 **************************************************************************

                    xk=(   0.26667,   0.06667,   0.06667  )

     Band symmetry, C_s (m)     point group:

     e(  1 -  1) =     -5.34745  eV     1   --> A'             
     e(  2 -  2) =      4.49900  eV     1   --> A'             
     e(  3 -  3) =      5.48221  eV     1   --> A''            
     e(  4 -  4) =      5.63435  eV     1   --> A'             
     e(  5 -  5) =      8.53360  eV     1   --> A'             
     e(  6 -  6) =      9.87968  eV     1   --> A'             
     e(  7 -  7) =     10.20662  eV     1   --> A''            
     e(  8 -  8) =     11.25110  eV     1   --> A'             

 **************************************************************************

 **************************************************************************

                    xk=(   0.23333,   0.05833,   0.05833  )

     Band symmetry, C_s (m)     point group:

     e(  1 -  1) =     -5.42988  eV     1   --> A'             
     e(  2 -  2) =      4.81921  eV     1   --> A'             
     e(  3 -  3) =      5.63514  eV     1   --> A''            
     e(  4 -  4) =      5.78816  eV     1   --> A'             
     e(  5 -  5) =      8.60640  eV     1   --> A'             
     e(  6 -  6) =      9.72173  eV     1   --> A'             
     e(  7 -  7) =      9.97333  eV     1   --> A''            
     e(  8 -  8) =     11.14016  eV     1   --> A'             

 **************************************************************************

 **************************************************************************

                    xk=(   0.20000,   0.05000,   0.05000  )

     Band symmetry, C_s (m)     point group:

     e(  1 -  1) =     -5.50149  eV     1   --> A'             
     e(  2 -  2) =      5.13369  eV     1   --> A'             
     e(  3 -  3) =      5.78696  eV     1   --> A''            
     e(  4 -  4) =      5.92923  eV     1   --> A'             
     e(  5 -  5) =      8.67874  eV     1   --> A'             
     e(  6 -  6) =      9.56879  eV     1   --> A'             
     e(  7 -  7) =      9.74825  eV     1   --> A''            
     e(  8 -  8) =     10.93725  eV     1   --> A'             

 **************************************************************************

 **************************************************************************

                    xk=(   0.16667,   0.04167,   0.04167  )

     Band symmetry, C_s (m)     point group:

     e(  1 -  1) =     -5.56221  eV     1   --> A'             
     e(  2 -  2) =      5.43727  eV     1   --> A'             
     e(  3 -  3) =      5.93401  eV     1   --> A''            
     e(  4 -  4) =      6.05538  eV     1   --> A'             
     e(  5 -  5) =      8.74812  eV     1   --> A'             
     e(  6 -  6) =      9.42256  eV     1   --> A'             
     e(  7 -  7) =      9.53662  eV     1   --> A''            
     e(  8 -  8) =     10.69341  eV     1   --> A'             

 **************************************************************************

 **************************************************************************

                    xk=(   0.13333,   0.03333,   0.03333  )

     Band symmetry, C_s (m)     point group:

     e(  1 -  1) =     -5.61198  eV     1   --> A'             
     e(  2 -  2) =      5.72222  eV     1   --> A'             
     e(  3 -  3) =      6.07131  eV     1   --> A''            
     e(  4 -  4) =      6.16416  eV     1   --> A'             
     e(  5 -  5) =      8.81151  eV     1   --> A'             
     e(  6 -  6) =      9.28449  eV     1   --> A'             
     e(  7 -  7) =      9.34474  eV     1   --> A''            
     e(  8 -  8) =     10.44867  eV     1   --> A'             

 **************************************************************************

 **************************************************************************

                    xk=(   0.10000,   0.02500,   0.02500  )

     Band symmetry, C_s (m)     point group:

     e(  1 -  1) =     -5.65074  eV     1   --> A'             
     e(  2 -  2) =      5.97696  eV     1   --> A'             
     e(  3 -  3) =      6.19224  eV     1   --> A''            
     e(  4 -  4) =      6.25287  eV     1   --> A'             
     e(  5 -  5) =      8.86558  eV     1   --> A'             
     e(  6 -  6) =      9.15734  eV     1   --> A'             
     e(  7 -  7) =      9.18031  eV     1   --> A''            
     e(  8 -  8) =     10.23119  eV     1   --> A'             

 **************************************************************************

 **************************************************************************

                    xk=(   0.06667,   0.01667,   0.01667  )

     Band symmetry, C_s (m)     point group:

     e(  1 -  1) =     -5.67845  eV     1   --> A'             
     e(  2 -  2) =      6.18471  eV     1   --> A'             
     e(  3 -  3) =      6.28857  eV     1   --> A''            
     e(  4 -  4) =      6.31879  eV     1   --> A'             
     e(  5 -  5) =      8.90704  eV     1   --> A'             
     e(  6 -  6) =      9.04809  eV     1   --> A'             
     e(  7 -  7) =      9.05235  eV     1   --> A''            
     e(  8 -  8) =     10.06197  eV     1   --> A'             

 **************************************************************************

 **************************************************************************

                    xk=(   0.03333,   0.00833,   0.00833  )

     Band symmetry, C_s (m)     point group:

     e(  1 -  1) =     -5.69509  eV     1   --> A'             
     e(  2 -  2) =      6.32382  eV     1   --> A'             
     e(  3 -  3) =      6.35137  eV     1   --> A''            
     e(  4 -  4) =      6.35950  eV     1   --> A'             
     e(  5 -  5) =      8.93311  eV     1   --> A'             
     e(  6 -  6) =      8.97035  eV     1   --> A''            
     e(  7 -  7) =      8.97060  eV     1   --> A'             
     e(  8 -  8) =      9.95549  eV     1   --> A'             

 **************************************************************************

 **************************************************************************

                    xk=(   0.00000,   0.00000,   0.00000  )

     point group O_h (m-3m) 
     there are 10 classes
     the character table:

       E     8C3   3C2   6C4   6C2'  i     8S6   3s_h  6S4   6s_d 
A_1g   1.00  1.00  1.00  1.00  1.00  1.00  1.00  1.00  1.00  1.00
A_2g   1.00  1.00  1.00 -1.00 -1.00  1.00  1.00  1.00 -1.00 -1.00
E_g    2.00 -1.00  2.00  0.00  0.00  2.00 -1.00  2.00  0.00  0.00
T_1g   3.00  0.00 -1.00  1.00 -1.00  3.00  0.00 -1.00  1.00 -1.00
T_2g   3.00  0.00 -1.00 -1.00  1.00  3.00  0.00 -1.00 -1.00  1.00
A_1u   1.00  1.00  1.00  1.00  1.00 -1.00 -1.00 -1.00 -1.00 -1.00
A_2u   1.00  1.00  1.00 -1.00 -1.00 -1.00 -1.00 -1.00  1.00  1.00
E_u    2.00 -1.00  2.00  0.00  0.00 -2.00  1.00 -2.00  0.00  0.00
T_1u   3.00  0.00 -1.00  1.00 -1.00 -3.00  0.00  1.00 -1.00  1.00
T_2u   3.00  0.00 -1.00 -1.00  1.00 -3.00  0.00  1.00  1.00 -1.00

     the symmetry operations in each class and the name of the first element:

     E        1
                                                                 
     8C3     17   19   20   18   24   21   22   23
                                                                 
     3C2      2    4    3
                                                                 
     6C4      7    8   15   16   12   11
                                                                 
     6C2'     5    6   14   13   10    9
                                                                 
     i       25
                                                                 
     8S6     41   43   44   42   48   45   46   47
                                                                 
     3s_h    26   28   27
                                                                 
     6S4     31   32   39   40   36   35
                                                                 
     6s_d    29   30   38   37   34   33
                                                                 

     Band symmetry, O_h (m-3m)  point group:

     e(  1 -  1) =     -5.70064  eV     1   --> A_1g G_1   G_1+
     e(  2 -  4) =      6.37329  eV     3   --> T_2g G_25' G_5+
     e(  5 -  7) =      8.94202  eV     3   --> T_1u G_15  G_4-
     e(  8 -  8) =      9.91930  eV     1   --> A_2u G_2'  G_2-

 **************************************************************************
 
     BANDS        :      5.90s CPU      6.06s WALL

 
   This run was terminated on:  14:33:42  27Oct2023            

=------------------------------------------------------------------------------=
   JOB DONE.
=------------------------------------------------------------------------------=
