
     Program PWSCF v.7.0 starts on 27Oct2023 at 16:21:41 

     This program is part of the open-source Quantum ESPRESSO suite
     for quantum simulation of materials; please cite
         "P. Giannozzi et al., J. Phys.:Condens. Matter 21 395502 (2009);
         "P. Giannozzi et al., J. Phys.:Condens. Matter 29 465901 (2017);
         "P. Giannozzi et al., J. Chem. Phys. 152 154105 (2020);
          URL http://www.quantum-espresso.org", 
     in publications or presentations arising from this work. More details at
     http://www.quantum-espresso.org/quote

     Parallel version (MPI), running on     1 processors

     MPI processes distributed on     1 nodes
     12895 MiB available memory on the printing compute node when the environment starts
 
     Reading input from espresso_pwbands.inp

     Current dimensions of program PWSCF are:
     Max number of different atomic species (ntypx) = 10
     Max number of k-points (npk) =  40000
     Max angular momentum in pseudopotentials (lmaxx) =  4

     Atomic positions and unit cell read from directory:
     ./tmp/silicon.save/
 

     Subspace diagonalization in iterative solution of the eigenvalue problem:
     a serial algorithm will be used

 
     G-vector sticks info
     --------------------
     sticks:   dense  smooth     PW     G-vecs:    dense   smooth      PW
     Sum        1417     721    211                35749    12627    2085
 
     Using Slab Decomposition
 


     bravais-lattice index     =            2
     lattice parameter (alat)  =      10.2076  a.u.
     unit-cell volume          =     265.8955 (a.u.)^3
     number of atoms/cell      =            2
     number of atomic types    =            1
     number of electrons       =         8.00
     number of Kohn-Sham states=            8
     kinetic-energy cutoff     =      50.0000  Ry
     charge density cutoff     =     400.0000  Ry
     Exchange-correlation= PBE
                           (   1   4   3   4   0   0   0)

     celldm(1)=  10.207600  celldm(2)=   0.000000  celldm(3)=   0.000000
     celldm(4)=   0.000000  celldm(5)=   0.000000  celldm(6)=   0.000000

     crystal axes: (cart. coord. in units of alat)
               a(1) = (  -0.500000   0.000000   0.500000 )  
               a(2) = (   0.000000   0.500000   0.500000 )  
               a(3) = (  -0.500000   0.500000   0.000000 )  

     reciprocal axes: (cart. coord. in units 2 pi/alat)
               b(1) = ( -1.000000 -1.000000  1.000000 )  
               b(2) = (  1.000000  1.000000  1.000000 )  
               b(3) = ( -1.000000  1.000000 -1.000000 )  


     PseudoPot. # 1 for Si read from file:
     ./Si.pbe-n-rrkjus_psl.1.0.0.UPF
     MD5 check sum: 0b0bb1205258b0d07b9f9672cf965d36
     Pseudo is Ultrasoft + core correction, Zval =  4.0
     Generated using "atomic" code by A. Dal Corso  v.5.1
     Using radial grid of 1141 points,  6 beta functions with: 
                l(1) =   0
                l(2) =   0
                l(3) =   1
                l(4) =   1
                l(5) =   2
                l(6) =   2
     Q(r) pseudized with 0 coefficients 


     atomic species   valence    mass     pseudopotential
        Si             4.00    28.08600     Si( 1.00)

     48 Sym. Ops., with inversion, found (24 have fractional translation)


                                    s                        frac. trans.

      isym =  1     identity                                     

 cryst.   s( 1) = (     1          0          0      )
                  (     0          1          0      )
                  (     0          0          1      )

 cart.    s( 1) = (  1.0000000  0.0000000  0.0000000 )
                  (  0.0000000  1.0000000  0.0000000 )
                  (  0.0000000  0.0000000  1.0000000 )


      isym =  2     180 deg rotation - cart. axis [0,0,1]        

 cryst.   s( 2) = (     0          1         -1      )
                  (     1          0         -1      )
                  (     0          0         -1      )

 cart.    s( 2) = ( -1.0000000  0.0000000  0.0000000 )
                  (  0.0000000 -1.0000000  0.0000000 )
                  (  0.0000000  0.0000000  1.0000000 )


      isym =  3     180 deg rotation - cart. axis [0,1,0]        

 cryst.   s( 3) = (    -1          0          0      )
                  (    -1          0          1      )
                  (    -1          1          0      )

 cart.    s( 3) = ( -1.0000000  0.0000000  0.0000000 )
                  (  0.0000000  1.0000000  0.0000000 )
                  (  0.0000000  0.0000000 -1.0000000 )


      isym =  4     180 deg rotation - cart. axis [1,0,0]        

 cryst.   s( 4) = (     0         -1          1      )
                  (     0         -1          0      )
                  (     1         -1          0      )

 cart.    s( 4) = (  1.0000000  0.0000000  0.0000000 )
                  (  0.0000000 -1.0000000  0.0000000 )
                  (  0.0000000  0.0000000 -1.0000000 )


      isym =  5     180 deg rotation - cart. axis [1,1,0]        

 cryst.   s( 5) = (     0         -1          0      )    f =(  0.2500000 )
                  (    -1          0          0      )       (  0.2500000 )
                  (     0          0         -1      )       (  0.2500000 )

 cart.    s( 5) = (  0.0000000  1.0000000  0.0000000 )    f =( -0.2500000 )
                  (  1.0000000  0.0000000  0.0000000 )       (  0.2500000 )
                  (  0.0000000  0.0000000 -1.0000000 )       (  0.2500000 )


      isym =  6     180 deg rotation - cart. axis [1,-1,0]       

 cryst.   s( 6) = (    -1          0          1      )    f =(  0.2500000 )
                  (     0         -1          1      )       (  0.2500000 )
                  (     0          0          1      )       (  0.2500000 )

 cart.    s( 6) = (  0.0000000 -1.0000000  0.0000000 )    f =( -0.2500000 )
                  ( -1.0000000  0.0000000  0.0000000 )       (  0.2500000 )
                  (  0.0000000  0.0000000 -1.0000000 )       (  0.2500000 )


      isym =  7      90 deg rotation - cart. axis [0,0,-1]       

 cryst.   s( 7) = (     0          1          0      )    f =(  0.2500000 )
                  (     0          1         -1      )       (  0.2500000 )
                  (    -1          1          0      )       (  0.2500000 )

 cart.    s( 7) = (  0.0000000  1.0000000  0.0000000 )    f =( -0.2500000 )
                  ( -1.0000000  0.0000000  0.0000000 )       (  0.2500000 )
                  (  0.0000000  0.0000000  1.0000000 )       (  0.2500000 )


      isym =  8      90 deg rotation - cart. axis [0,0,1]        

 cryst.   s( 8) = (     1          0         -1      )    f =(  0.2500000 )
                  (     1          0          0      )       (  0.2500000 )
                  (     1         -1          0      )       (  0.2500000 )

 cart.    s( 8) = (  0.0000000 -1.0000000  0.0000000 )    f =( -0.2500000 )
                  (  1.0000000  0.0000000  0.0000000 )       (  0.2500000 )
                  (  0.0000000  0.0000000  1.0000000 )       (  0.2500000 )


      isym =  9     180 deg rotation - cart. axis [1,0,1]        

 cryst.   s( 9) = (    -1          0          0      )    f =(  0.2500000 )
                  (     0          0         -1      )       (  0.2500000 )
                  (     0         -1          0      )       (  0.2500000 )

 cart.    s( 9) = (  0.0000000  0.0000000  1.0000000 )    f =( -0.2500000 )
                  (  0.0000000 -1.0000000  0.0000000 )       (  0.2500000 )
                  (  1.0000000  0.0000000  0.0000000 )       (  0.2500000 )


      isym = 10     180 deg rotation - cart. axis [-1,0,1]       

 cryst.   s(10) = (     1          0          0      )    f =(  0.2500000 )
                  (     1         -1          0      )       (  0.2500000 )
                  (     1          0         -1      )       (  0.2500000 )

 cart.    s(10) = (  0.0000000  0.0000000 -1.0000000 )    f =( -0.2500000 )
                  (  0.0000000 -1.0000000  0.0000000 )       (  0.2500000 )
                  ( -1.0000000  0.0000000  0.0000000 )       (  0.2500000 )


      isym = 11      90 deg rotation - cart. axis [0,1,0]        

 cryst.   s(11) = (     0          1         -1      )    f =(  0.2500000 )
                  (    -1          1          0      )       (  0.2500000 )
                  (     0          1          0      )       (  0.2500000 )

 cart.    s(11) = (  0.0000000  0.0000000  1.0000000 )    f =( -0.2500000 )
                  (  0.0000000  1.0000000  0.0000000 )       (  0.2500000 )
                  ( -1.0000000  0.0000000  0.0000000 )       (  0.2500000 )


      isym = 12      90 deg rotation - cart. axis [0,-1,0]       

 cryst.   s(12) = (     0         -1          1      )    f =(  0.2500000 )
                  (     0          0          1      )       (  0.2500000 )
                  (    -1          0          1      )       (  0.2500000 )

 cart.    s(12) = (  0.0000000  0.0000000 -1.0000000 )    f =( -0.2500000 )
                  (  0.0000000  1.0000000  0.0000000 )       (  0.2500000 )
                  (  1.0000000  0.0000000  0.0000000 )       (  0.2500000 )


      isym = 13     180 deg rotation - cart. axis [0,1,1]        

 cryst.   s(13) = (    -1          1          0      )    f =(  0.2500000 )
                  (     0          1          0      )       (  0.2500000 )
                  (     0          1         -1      )       (  0.2500000 )

 cart.    s(13) = ( -1.0000000  0.0000000  0.0000000 )    f =( -0.2500000 )
                  (  0.0000000  0.0000000  1.0000000 )       (  0.2500000 )
                  (  0.0000000  1.0000000  0.0000000 )       (  0.2500000 )


      isym = 14     180 deg rotation - cart. axis [0,1,-1]       

 cryst.   s(14) = (     0          0         -1      )    f =(  0.2500000 )
                  (     0         -1          0      )       (  0.2500000 )
                  (    -1          0          0      )       (  0.2500000 )

 cart.    s(14) = ( -1.0000000  0.0000000  0.0000000 )    f =( -0.2500000 )
                  (  0.0000000  0.0000000 -1.0000000 )       (  0.2500000 )
                  (  0.0000000 -1.0000000  0.0000000 )       (  0.2500000 )


      isym = 15      90 deg rotation - cart. axis [-1,0,0]       

 cryst.   s(15) = (     0          0          1      )    f =(  0.2500000 )
                  (    -1          0          1      )       (  0.2500000 )
                  (     0         -1          1      )       (  0.2500000 )

 cart.    s(15) = (  1.0000000  0.0000000  0.0000000 )    f =( -0.2500000 )
                  (  0.0000000  0.0000000  1.0000000 )       (  0.2500000 )
                  (  0.0000000 -1.0000000  0.0000000 )       (  0.2500000 )


      isym = 16      90 deg rotation - cart. axis [1,0,0]        

 cryst.   s(16) = (     1         -1          0      )    f =(  0.2500000 )
                  (     1          0         -1      )       (  0.2500000 )
                  (     1          0          0      )       (  0.2500000 )

 cart.    s(16) = (  1.0000000  0.0000000  0.0000000 )    f =( -0.2500000 )
                  (  0.0000000  0.0000000 -1.0000000 )       (  0.2500000 )
                  (  0.0000000  1.0000000  0.0000000 )       (  0.2500000 )


      isym = 17     120 deg rotation - cart. axis [-1,-1,-1]     

 cryst.   s(17) = (    -1          0          1      )
                  (    -1          1          0      )
                  (    -1          0          0      )

 cart.    s(17) = (  0.0000000  1.0000000  0.0000000 )
                  (  0.0000000  0.0000000  1.0000000 )
                  (  1.0000000  0.0000000  0.0000000 )


      isym = 18     120 deg rotation - cart. axis [-1,1,1]       

 cryst.   s(18) = (     0          1          0      )
                  (     0          0          1      )
                  (     1          0          0      )

 cart.    s(18) = (  0.0000000 -1.0000000  0.0000000 )
                  (  0.0000000  0.0000000  1.0000000 )
                  ( -1.0000000  0.0000000  0.0000000 )


      isym = 19     120 deg rotation - cart. axis [1,1,-1]       

 cryst.   s(19) = (     1          0         -1      )
                  (     0          0         -1      )
                  (     0          1         -1      )

 cart.    s(19) = (  0.0000000  1.0000000  0.0000000 )
                  (  0.0000000  0.0000000 -1.0000000 )
                  ( -1.0000000  0.0000000  0.0000000 )


      isym = 20     120 deg rotation - cart. axis [1,-1,1]       

 cryst.   s(20) = (     0         -1          0      )
                  (     1         -1          0      )
                  (     0         -1          1      )

 cart.    s(20) = (  0.0000000 -1.0000000  0.0000000 )
                  (  0.0000000  0.0000000 -1.0000000 )
                  (  1.0000000  0.0000000  0.0000000 )


      isym = 21     120 deg rotation - cart. axis [1,1,1]        

 cryst.   s(21) = (     0          0         -1      )
                  (     0          1         -1      )
                  (     1          0         -1      )

 cart.    s(21) = (  0.0000000  0.0000000  1.0000000 )
                  (  1.0000000  0.0000000  0.0000000 )
                  (  0.0000000  1.0000000  0.0000000 )


      isym = 22     120 deg rotation - cart. axis [-1,1,-1]      

 cryst.   s(22) = (    -1          1          0      )
                  (    -1          0          0      )
                  (    -1          0          1      )

 cart.    s(22) = (  0.0000000  0.0000000  1.0000000 )
                  ( -1.0000000  0.0000000  0.0000000 )
                  (  0.0000000 -1.0000000  0.0000000 )


      isym = 23     120 deg rotation - cart. axis [1,-1,-1]      

 cryst.   s(23) = (     0          0          1      )
                  (     1          0          0      )
                  (     0          1          0      )

 cart.    s(23) = (  0.0000000  0.0000000 -1.0000000 )
                  ( -1.0000000  0.0000000  0.0000000 )
                  (  0.0000000  1.0000000  0.0000000 )


      isym = 24     120 deg rotation - cart. axis [-1,-1,1]      

 cryst.   s(24) = (     1         -1          0      )
                  (     0         -1          1      )
                  (     0         -1          0      )

 cart.    s(24) = (  0.0000000  0.0000000 -1.0000000 )
                  (  1.0000000  0.0000000  0.0000000 )
                  (  0.0000000 -1.0000000  0.0000000 )


      isym = 25     inversion                                    

 cryst.   s(25) = (    -1          0          0      )    f =(  0.2500000 )
                  (     0         -1          0      )       (  0.2500000 )
                  (     0          0         -1      )       (  0.2500000 )

 cart.    s(25) = ( -1.0000000  0.0000000  0.0000000 )    f =( -0.2500000 )
                  (  0.0000000 -1.0000000  0.0000000 )       (  0.2500000 )
                  (  0.0000000  0.0000000 -1.0000000 )       (  0.2500000 )


      isym = 26     inv. 180 deg rotation - cart. axis [0,0,1]   

 cryst.   s(26) = (     0         -1          1      )    f =(  0.2500000 )
                  (    -1          0          1      )       (  0.2500000 )
                  (     0          0          1      )       (  0.2500000 )

 cart.    s(26) = (  1.0000000  0.0000000  0.0000000 )    f =( -0.2500000 )
                  (  0.0000000  1.0000000  0.0000000 )       (  0.2500000 )
                  (  0.0000000  0.0000000 -1.0000000 )       (  0.2500000 )


      isym = 27     inv. 180 deg rotation - cart. axis [0,1,0]   

 cryst.   s(27) = (     1          0          0      )    f =(  0.2500000 )
                  (     1          0         -1      )       (  0.2500000 )
                  (     1         -1          0      )       (  0.2500000 )

 cart.    s(27) = (  1.0000000  0.0000000  0.0000000 )    f =( -0.2500000 )
                  (  0.0000000 -1.0000000  0.0000000 )       (  0.2500000 )
                  (  0.0000000  0.0000000  1.0000000 )       (  0.2500000 )


      isym = 28     inv. 180 deg rotation - cart. axis [1,0,0]   

 cryst.   s(28) = (     0          1         -1      )    f =(  0.2500000 )
                  (     0          1          0      )       (  0.2500000 )
                  (    -1          1          0      )       (  0.2500000 )

 cart.    s(28) = ( -1.0000000  0.0000000  0.0000000 )    f =( -0.2500000 )
                  (  0.0000000  1.0000000  0.0000000 )       (  0.2500000 )
                  (  0.0000000  0.0000000  1.0000000 )       (  0.2500000 )


      isym = 29     inv. 180 deg rotation - cart. axis [1,1,0]   

 cryst.   s(29) = (     0          1          0      )
                  (     1          0          0      )
                  (     0          0          1      )

 cart.    s(29) = (  0.0000000 -1.0000000  0.0000000 )
                  ( -1.0000000  0.0000000  0.0000000 )
                  (  0.0000000  0.0000000  1.0000000 )


      isym = 30     inv. 180 deg rotation - cart. axis [1,-1,0]  

 cryst.   s(30) = (     1          0         -1      )
                  (     0          1         -1      )
                  (     0          0         -1      )

 cart.    s(30) = (  0.0000000  1.0000000  0.0000000 )
                  (  1.0000000  0.0000000  0.0000000 )
                  (  0.0000000  0.0000000  1.0000000 )


      isym = 31     inv.  90 deg rotation - cart. axis [0,0,-1]  

 cryst.   s(31) = (     0         -1          0      )
                  (     0         -1          1      )
                  (     1         -1          0      )

 cart.    s(31) = (  0.0000000 -1.0000000  0.0000000 )
                  (  1.0000000  0.0000000  0.0000000 )
                  (  0.0000000  0.0000000 -1.0000000 )


      isym = 32     inv.  90 deg rotation - cart. axis [0,0,1]   

 cryst.   s(32) = (    -1          0          1      )
                  (    -1          0          0      )
                  (    -1          1          0      )

 cart.    s(32) = (  0.0000000  1.0000000  0.0000000 )
                  ( -1.0000000  0.0000000  0.0000000 )
                  (  0.0000000  0.0000000 -1.0000000 )


      isym = 33     inv. 180 deg rotation - cart. axis [1,0,1]   

 cryst.   s(33) = (     1          0          0      )
                  (     0          0          1      )
                  (     0          1          0      )

 cart.    s(33) = (  0.0000000  0.0000000 -1.0000000 )
                  (  0.0000000  1.0000000  0.0000000 )
                  ( -1.0000000  0.0000000  0.0000000 )


      isym = 34     inv. 180 deg rotation - cart. axis [-1,0,1]  

 cryst.   s(34) = (    -1          0          0      )
                  (    -1          1          0      )
                  (    -1          0          1      )

 cart.    s(34) = (  0.0000000  0.0000000  1.0000000 )
                  (  0.0000000  1.0000000  0.0000000 )
                  (  1.0000000  0.0000000  0.0000000 )


      isym = 35     inv.  90 deg rotation - cart. axis [0,1,0]   

 cryst.   s(35) = (     0         -1          1      )
                  (     1         -1          0      )
                  (     0         -1          0      )

 cart.    s(35) = (  0.0000000  0.0000000 -1.0000000 )
                  (  0.0000000 -1.0000000  0.0000000 )
                  (  1.0000000  0.0000000  0.0000000 )


      isym = 36     inv.  90 deg rotation - cart. axis [0,-1,0]  

 cryst.   s(36) = (     0          1         -1      )
                  (     0          0         -1      )
                  (     1          0         -1      )

 cart.    s(36) = (  0.0000000  0.0000000  1.0000000 )
                  (  0.0000000 -1.0000000  0.0000000 )
                  ( -1.0000000  0.0000000  0.0000000 )


      isym = 37     inv. 180 deg rotation - cart. axis [0,1,1]   

 cryst.   s(37) = (     1         -1          0      )
                  (     0         -1          0      )
                  (     0         -1          1      )

 cart.    s(37) = (  1.0000000  0.0000000  0.0000000 )
                  (  0.0000000  0.0000000 -1.0000000 )
                  (  0.0000000 -1.0000000  0.0000000 )


      isym = 38     inv. 180 deg rotation - cart. axis [0,1,-1]  

 cryst.   s(38) = (     0          0          1      )
                  (     0          1          0      )
                  (     1          0          0      )

 cart.    s(38) = (  1.0000000  0.0000000  0.0000000 )
                  (  0.0000000  0.0000000  1.0000000 )
                  (  0.0000000  1.0000000  0.0000000 )


      isym = 39     inv.  90 deg rotation - cart. axis [-1,0,0]  

 cryst.   s(39) = (     0          0         -1      )
                  (     1          0         -1      )
                  (     0          1         -1      )

 cart.    s(39) = ( -1.0000000  0.0000000  0.0000000 )
                  (  0.0000000  0.0000000 -1.0000000 )
                  (  0.0000000  1.0000000  0.0000000 )


      isym = 40     inv.  90 deg rotation - cart. axis [1,0,0]   

 cryst.   s(40) = (    -1          1          0      )
                  (    -1          0          1      )
                  (    -1          0          0      )

 cart.    s(40) = ( -1.0000000  0.0000000  0.0000000 )
                  (  0.0000000  0.0000000  1.0000000 )
                  (  0.0000000 -1.0000000  0.0000000 )


      isym = 41     inv. 120 deg rotation - cart. axis [-1,-1,-1]

 cryst.   s(41) = (     1          0         -1      )    f =(  0.2500000 )
                  (     1         -1          0      )       (  0.2500000 )
                  (     1          0          0      )       (  0.2500000 )

 cart.    s(41) = (  0.0000000 -1.0000000  0.0000000 )    f =( -0.2500000 )
                  (  0.0000000  0.0000000 -1.0000000 )       (  0.2500000 )
                  ( -1.0000000  0.0000000  0.0000000 )       (  0.2500000 )


      isym = 42     inv. 120 deg rotation - cart. axis [-1,1,1]  

 cryst.   s(42) = (     0         -1          0      )    f =(  0.2500000 )
                  (     0          0         -1      )       (  0.2500000 )
                  (    -1          0          0      )       (  0.2500000 )

 cart.    s(42) = (  0.0000000  1.0000000  0.0000000 )    f =( -0.2500000 )
                  (  0.0000000  0.0000000 -1.0000000 )       (  0.2500000 )
                  (  1.0000000  0.0000000  0.0000000 )       (  0.2500000 )


      isym = 43     inv. 120 deg rotation - cart. axis [1,1,-1]  

 cryst.   s(43) = (    -1          0          1      )    f =(  0.2500000 )
                  (     0          0          1      )       (  0.2500000 )
                  (     0         -1          1      )       (  0.2500000 )

 cart.    s(43) = (  0.0000000 -1.0000000  0.0000000 )    f =( -0.2500000 )
                  (  0.0000000  0.0000000  1.0000000 )       (  0.2500000 )
                  (  1.0000000  0.0000000  0.0000000 )       (  0.2500000 )


      isym = 44     inv. 120 deg rotation - cart. axis [1,-1,1]  

 cryst.   s(44) = (     0          1          0      )    f =(  0.2500000 )
                  (    -1          1          0      )       (  0.2500000 )
                  (     0          1         -1      )       (  0.2500000 )

 cart.    s(44) = (  0.0000000  1.0000000  0.0000000 )    f =( -0.2500000 )
                  (  0.0000000  0.0000000  1.0000000 )       (  0.2500000 )
                  ( -1.0000000  0.0000000  0.0000000 )       (  0.2500000 )


      isym = 45     inv. 120 deg rotation - cart. axis [1,1,1]   

 cryst.   s(45) = (     0          0          1      )    f =(  0.2500000 )
                  (     0         -1          1      )       (  0.2500000 )
                  (    -1          0          1      )       (  0.2500000 )

 cart.    s(45) = (  0.0000000  0.0000000 -1.0000000 )    f =( -0.2500000 )
                  ( -1.0000000  0.0000000  0.0000000 )       (  0.2500000 )
                  (  0.0000000 -1.0000000  0.0000000 )       (  0.2500000 )


      isym = 46     inv. 120 deg rotation - cart. axis [-1,1,-1] 

 cryst.   s(46) = (     1         -1          0      )    f =(  0.2500000 )
                  (     1          0          0      )       (  0.2500000 )
                  (     1          0         -1      )       (  0.2500000 )

 cart.    s(46) = (  0.0000000  0.0000000 -1.0000000 )    f =( -0.2500000 )
                  (  1.0000000  0.0000000  0.0000000 )       (  0.2500000 )
                  (  0.0000000  1.0000000  0.0000000 )       (  0.2500000 )


      isym = 47     inv. 120 deg rotation - cart. axis [1,-1,-1] 

 cryst.   s(47) = (     0          0         -1      )    f =(  0.2500000 )
                  (    -1          0          0      )       (  0.2500000 )
                  (     0         -1          0      )       (  0.2500000 )

 cart.    s(47) = (  0.0000000  0.0000000  1.0000000 )    f =( -0.2500000 )
                  (  1.0000000  0.0000000  0.0000000 )       (  0.2500000 )
                  (  0.0000000 -1.0000000  0.0000000 )       (  0.2500000 )


      isym = 48     inv. 120 deg rotation - cart. axis [-1,-1,1] 

 cryst.   s(48) = (    -1          1          0      )    f =(  0.2500000 )
                  (     0          1         -1      )       (  0.2500000 )
                  (     0          1          0      )       (  0.2500000 )

 cart.    s(48) = (  0.0000000  0.0000000  1.0000000 )    f =( -0.2500000 )
                  ( -1.0000000  0.0000000  0.0000000 )       (  0.2500000 )
                  (  0.0000000  1.0000000  0.0000000 )       (  0.2500000 )


     point group O_h (m-3m) 
     there are 10 classes
     the character table:

       E     8C3   3C2   6C4   6C2'  i     8S6   3s_h  6S4   6s_d 
A_1g   1.00  1.00  1.00  1.00  1.00  1.00  1.00  1.00  1.00  1.00
A_2g   1.00  1.00  1.00 -1.00 -1.00  1.00  1.00  1.00 -1.00 -1.00
E_g    2.00 -1.00  2.00  0.00  0.00  2.00 -1.00  2.00  0.00  0.00
T_1g   3.00  0.00 -1.00  1.00 -1.00  3.00  0.00 -1.00  1.00 -1.00
T_2g   3.00  0.00 -1.00 -1.00  1.00  3.00  0.00 -1.00 -1.00  1.00
A_1u   1.00  1.00  1.00  1.00  1.00 -1.00 -1.00 -1.00 -1.00 -1.00
A_2u   1.00  1.00  1.00 -1.00 -1.00 -1.00 -1.00 -1.00  1.00  1.00
E_u    2.00 -1.00  2.00  0.00  0.00 -2.00  1.00 -2.00  0.00  0.00
T_1u   3.00  0.00 -1.00  1.00 -1.00 -3.00  0.00  1.00 -1.00  1.00
T_2u   3.00  0.00 -1.00 -1.00  1.00 -3.00  0.00  1.00  1.00 -1.00

     the symmetry operations in each class and the name of the first element:

     E        1
          identity                                               
     8C3     17   19   20   18   24   21   22   23
          120 deg rotation - cart. axis [-1,-1,-1]               
     3C2      2    4    3
          180 deg rotation - cart. axis [0,0,1]                  
     6C4      7    8   15   16   12   11
           90 deg rotation - cart. axis [0,0,-1]                 
     6C2'     5    6   14   13   10    9
          180 deg rotation - cart. axis [1,1,0]                  
     i       25
          inversion                                              
     8S6     41   43   44   42   48   45   46   47
          inv. 120 deg rotation - cart. axis [-1,-1,-1]          
     3s_h    26   28   27
          inv. 180 deg rotation - cart. axis [0,0,1]             
     6S4     31   32   39   40   36   35
          inv.  90 deg rotation - cart. axis [0,0,-1]            
     6s_d    29   30   38   37   34   33
          inv. 180 deg rotation - cart. axis [1,1,0]             

   Cartesian axes

     site n.     atom                  positions (alat units)
         1           Si  tau(   1) = (   0.0000000   0.0000000   0.0000000  )
         2           Si  tau(   2) = (   0.2500000   0.2500000   0.2500000  )

   Crystallographic axes

     site n.     atom                  positions (cryst. coord.)
         1           Si  tau(   1) = (  0.0000000  0.0000000  0.0000000  )
         2           Si  tau(   2) = ( -0.2500000  0.7500000 -0.2500000  )

     number of k points=    91  Marzari-Vanderbilt smearing, width (Ry)=  0.1000
                       cart. coord. in units 2pi/alat
        k(    1) = (   0.5000000   0.5000000   0.5000000), wk =   0.0219780
        k(    2) = (   0.4750000   0.4750000   0.4750000), wk =   0.0219780
        k(    3) = (   0.4500000   0.4500000   0.4500000), wk =   0.0219780
        k(    4) = (   0.4250000   0.4250000   0.4250000), wk =   0.0219780
        k(    5) = (   0.4000000   0.4000000   0.4000000), wk =   0.0219780
        k(    6) = (   0.3750000   0.3750000   0.3750000), wk =   0.0219780
        k(    7) = (   0.3500000   0.3500000   0.3500000), wk =   0.0219780
        k(    8) = (   0.3250000   0.3250000   0.3250000), wk =   0.0219780
        k(    9) = (   0.3000000   0.3000000   0.3000000), wk =   0.0219780
        k(   10) = (   0.2750000   0.2750000   0.2750000), wk =   0.0219780
        k(   11) = (   0.2500000   0.2500000   0.2500000), wk =   0.0219780
        k(   12) = (   0.2250000   0.2250000   0.2250000), wk =   0.0219780
        k(   13) = (   0.2000000   0.2000000   0.2000000), wk =   0.0219780
        k(   14) = (   0.1750000   0.1750000   0.1750000), wk =   0.0219780
        k(   15) = (   0.1500000   0.1500000   0.1500000), wk =   0.0219780
        k(   16) = (   0.1250000   0.1250000   0.1250000), wk =   0.0219780
        k(   17) = (   0.1000000   0.1000000   0.1000000), wk =   0.0219780
        k(   18) = (   0.0750000   0.0750000   0.0750000), wk =   0.0219780
        k(   19) = (   0.0500000   0.0500000   0.0500000), wk =   0.0219780
        k(   20) = (   0.0250000   0.0250000   0.0250000), wk =   0.0219780
        k(   21) = (   0.0000000   0.0000000   0.0000000), wk =   0.0219780
        k(   22) = (   0.0333333   0.0000000   0.0000000), wk =   0.0219780
        k(   23) = (   0.0666667   0.0000000   0.0000000), wk =   0.0219780
        k(   24) = (   0.1000000   0.0000000   0.0000000), wk =   0.0219780
        k(   25) = (   0.1333333   0.0000000   0.0000000), wk =   0.0219780
        k(   26) = (   0.1666667   0.0000000   0.0000000), wk =   0.0219780
        k(   27) = (   0.2000000   0.0000000   0.0000000), wk =   0.0219780
        k(   28) = (   0.2333333   0.0000000   0.0000000), wk =   0.0219780
        k(   29) = (   0.2666667   0.0000000   0.0000000), wk =   0.0219780
        k(   30) = (   0.3000000   0.0000000   0.0000000), wk =   0.0219780
        k(   31) = (   0.3333333   0.0000000   0.0000000), wk =   0.0219780
        k(   32) = (   0.3666667   0.0000000   0.0000000), wk =   0.0219780
        k(   33) = (   0.4000000   0.0000000   0.0000000), wk =   0.0219780
        k(   34) = (   0.4333333   0.0000000   0.0000000), wk =   0.0219780
        k(   35) = (   0.4666667   0.0000000   0.0000000), wk =   0.0219780
        k(   36) = (   0.5000000   0.0000000   0.0000000), wk =   0.0219780
        k(   37) = (   0.5333333   0.0000000   0.0000000), wk =   0.0219780
        k(   38) = (   0.5666667   0.0000000   0.0000000), wk =   0.0219780
        k(   39) = (   0.6000000   0.0000000   0.0000000), wk =   0.0219780
        k(   40) = (   0.6333333   0.0000000   0.0000000), wk =   0.0219780
        k(   41) = (   0.6666667   0.0000000   0.0000000), wk =   0.0219780
        k(   42) = (   0.7000000   0.0000000   0.0000000), wk =   0.0219780
        k(   43) = (   0.7333333   0.0000000   0.0000000), wk =   0.0219780
        k(   44) = (   0.7666667   0.0000000   0.0000000), wk =   0.0219780
        k(   45) = (   0.8000000   0.0000000   0.0000000), wk =   0.0219780
        k(   46) = (   0.8333333   0.0000000   0.0000000), wk =   0.0219780
        k(   47) = (   0.8666667   0.0000000   0.0000000), wk =   0.0219780
        k(   48) = (   0.9000000   0.0000000   0.0000000), wk =   0.0219780
        k(   49) = (   0.9333333   0.0000000   0.0000000), wk =   0.0219780
        k(   50) = (   0.9666667   0.0000000   0.0000000), wk =   0.0219780
        k(   51) = (   1.0000000   0.0000000   0.0000000), wk =   0.0219780
        k(   52) = (   1.0000000   0.0250000   0.0250000), wk =   0.0219780
        k(   53) = (   1.0000000   0.0500000   0.0500000), wk =   0.0219780
        k(   54) = (   1.0000000   0.0750000   0.0750000), wk =   0.0219780
        k(   55) = (   1.0000000   0.1000000   0.1000000), wk =   0.0219780
        k(   56) = (   1.0000000   0.1250000   0.1250000), wk =   0.0219780
        k(   57) = (   1.0000000   0.1500000   0.1500000), wk =   0.0219780
        k(   58) = (   1.0000000   0.1750000   0.1750000), wk =   0.0219780
        k(   59) = (   1.0000000   0.2000000   0.2000000), wk =   0.0219780
        k(   60) = (   1.0000000   0.2250000   0.2250000), wk =   0.0219780
        k(   61) = (   1.0000000   0.2500000   0.2500000), wk =   0.0219780
        k(   62) = (   0.9666667   0.2416667   0.2416667), wk =   0.0219780
        k(   63) = (   0.9333333   0.2333333   0.2333333), wk =   0.0219780
        k(   64) = (   0.9000000   0.2250000   0.2250000), wk =   0.0219780
        k(   65) = (   0.8666667   0.2166667   0.2166667), wk =   0.0219780
        k(   66) = (   0.8333333   0.2083333   0.2083333), wk =   0.0219780
        k(   67) = (   0.8000000   0.2000000   0.2000000), wk =   0.0219780
        k(   68) = (   0.7666667   0.1916667   0.1916667), wk =   0.0219780
        k(   69) = (   0.7333333   0.1833333   0.1833333), wk =   0.0219780
        k(   70) = (   0.7000000   0.1750000   0.1750000), wk =   0.0219780
        k(   71) = (   0.6666667   0.1666667   0.1666667), wk =   0.0219780
        k(   72) = (   0.6333333   0.1583333   0.1583333), wk =   0.0219780
        k(   73) = (   0.6000000   0.1500000   0.1500000), wk =   0.0219780
        k(   74) = (   0.5666667   0.1416667   0.1416667), wk =   0.0219780
        k(   75) = (   0.5333333   0.1333333   0.1333333), wk =   0.0219780
        k(   76) = (   0.5000000   0.1250000   0.1250000), wk =   0.0219780
        k(   77) = (   0.4666667   0.1166667   0.1166667), wk =   0.0219780
        k(   78) = (   0.4333333   0.1083333   0.1083333), wk =   0.0219780
        k(   79) = (   0.4000000   0.1000000   0.1000000), wk =   0.0219780
        k(   80) = (   0.3666667   0.0916667   0.0916667), wk =   0.0219780
        k(   81) = (   0.3333333   0.0833333   0.0833333), wk =   0.0219780
        k(   82) = (   0.3000000   0.0750000   0.0750000), wk =   0.0219780
        k(   83) = (   0.2666667   0.0666667   0.0666667), wk =   0.0219780
        k(   84) = (   0.2333333   0.0583333   0.0583333), wk =   0.0219780
        k(   85) = (   0.2000000   0.0500000   0.0500000), wk =   0.0219780
        k(   86) = (   0.1666667   0.0416667   0.0416667), wk =   0.0219780
        k(   87) = (   0.1333333   0.0333333   0.0333333), wk =   0.0219780
        k(   88) = (   0.1000000   0.0250000   0.0250000), wk =   0.0219780
        k(   89) = (   0.0666667   0.0166667   0.0166667), wk =   0.0219780
        k(   90) = (   0.0333333   0.0083333   0.0083333), wk =   0.0219780
        k(   91) = (   0.0000000   0.0000000   0.0000000), wk =   0.0219780

                       cryst. coord.
        k(    1) = (   0.0000000   0.5000000   0.0000000), wk =   0.0219780
        k(    2) = (   0.0000000   0.4750000   0.0000000), wk =   0.0219780
        k(    3) = (   0.0000000   0.4500000   0.0000000), wk =   0.0219780
        k(    4) = (   0.0000000   0.4250000   0.0000000), wk =   0.0219780
        k(    5) = (   0.0000000   0.4000000   0.0000000), wk =   0.0219780
        k(    6) = (   0.0000000   0.3750000   0.0000000), wk =   0.0219780
        k(    7) = (   0.0000000   0.3500000   0.0000000), wk =   0.0219780
        k(    8) = (   0.0000000   0.3250000   0.0000000), wk =   0.0219780
        k(    9) = (   0.0000000   0.3000000   0.0000000), wk =   0.0219780
        k(   10) = (   0.0000000   0.2750000   0.0000000), wk =   0.0219780
        k(   11) = (   0.0000000   0.2500000   0.0000000), wk =   0.0219780
        k(   12) = (   0.0000000   0.2250000   0.0000000), wk =   0.0219780
        k(   13) = (   0.0000000   0.2000000   0.0000000), wk =   0.0219780
        k(   14) = (   0.0000000   0.1750000   0.0000000), wk =   0.0219780
        k(   15) = (   0.0000000   0.1500000   0.0000000), wk =   0.0219780
        k(   16) = (   0.0000000   0.1250000   0.0000000), wk =   0.0219780
        k(   17) = (   0.0000000   0.1000000   0.0000000), wk =   0.0219780
        k(   18) = (   0.0000000   0.0750000   0.0000000), wk =   0.0219780
        k(   19) = (   0.0000000   0.0500000   0.0000000), wk =   0.0219780
        k(   20) = (   0.0000000   0.0250000   0.0000000), wk =   0.0219780
        k(   21) = (   0.0000000   0.0000000   0.0000000), wk =   0.0219780
        k(   22) = (  -0.0166667   0.0000000  -0.0166667), wk =   0.0219780
        k(   23) = (  -0.0333333   0.0000000  -0.0333333), wk =   0.0219780
        k(   24) = (  -0.0500000   0.0000000  -0.0500000), wk =   0.0219780
        k(   25) = (  -0.0666667   0.0000000  -0.0666667), wk =   0.0219780
        k(   26) = (  -0.0833333   0.0000000  -0.0833333), wk =   0.0219780
        k(   27) = (  -0.1000000   0.0000000  -0.1000000), wk =   0.0219780
        k(   28) = (  -0.1166667   0.0000000  -0.1166667), wk =   0.0219780
        k(   29) = (  -0.1333333   0.0000000  -0.1333333), wk =   0.0219780
        k(   30) = (  -0.1500000   0.0000000  -0.1500000), wk =   0.0219780
        k(   31) = (  -0.1666667   0.0000000  -0.1666667), wk =   0.0219780
        k(   32) = (  -0.1833333   0.0000000  -0.1833333), wk =   0.0219780
        k(   33) = (  -0.2000000   0.0000000  -0.2000000), wk =   0.0219780
        k(   34) = (  -0.2166667   0.0000000  -0.2166667), wk =   0.0219780
        k(   35) = (  -0.2333333   0.0000000  -0.2333333), wk =   0.0219780
        k(   36) = (  -0.2500000   0.0000000  -0.2500000), wk =   0.0219780
        k(   37) = (  -0.2666667   0.0000000  -0.2666667), wk =   0.0219780
        k(   38) = (  -0.2833333   0.0000000  -0.2833333), wk =   0.0219780
        k(   39) = (  -0.3000000   0.0000000  -0.3000000), wk =   0.0219780
        k(   40) = (  -0.3166667   0.0000000  -0.3166667), wk =   0.0219780
        k(   41) = (  -0.3333333   0.0000000  -0.3333333), wk =   0.0219780
        k(   42) = (  -0.3500000   0.0000000  -0.3500000), wk =   0.0219780
        k(   43) = (  -0.3666667   0.0000000  -0.3666667), wk =   0.0219780
        k(   44) = (  -0.3833333   0.0000000  -0.3833333), wk =   0.0219780
        k(   45) = (  -0.4000000   0.0000000  -0.4000000), wk =   0.0219780
        k(   46) = (  -0.4166667   0.0000000  -0.4166667), wk =   0.0219780
        k(   47) = (  -0.4333333   0.0000000  -0.4333333), wk =   0.0219780
        k(   48) = (  -0.4500000   0.0000000  -0.4500000), wk =   0.0219780
        k(   49) = (  -0.4666667   0.0000000  -0.4666667), wk =   0.0219780
        k(   50) = (  -0.4833333   0.0000000  -0.4833333), wk =   0.0219780
        k(   51) = (  -0.5000000   0.0000000  -0.5000000), wk =   0.0219780
        k(   52) = (  -0.4875000   0.0250000  -0.4875000), wk =   0.0219780
        k(   53) = (  -0.4750000   0.0500000  -0.4750000), wk =   0.0219780
        k(   54) = (  -0.4625000   0.0750000  -0.4625000), wk =   0.0219780
        k(   55) = (  -0.4500000   0.1000000  -0.4500000), wk =   0.0219780
        k(   56) = (  -0.4375000   0.1250000  -0.4375000), wk =   0.0219780
        k(   57) = (  -0.4250000   0.1500000  -0.4250000), wk =   0.0219780
        k(   58) = (  -0.4125000   0.1750000  -0.4125000), wk =   0.0219780
        k(   59) = (  -0.4000000   0.2000000  -0.4000000), wk =   0.0219780
        k(   60) = (  -0.3875000   0.2250000  -0.3875000), wk =   0.0219780
        k(   61) = (  -0.3750000   0.2500000  -0.3750000), wk =   0.0219780
        k(   62) = (  -0.3625000   0.2416667  -0.3625000), wk =   0.0219780
        k(   63) = (  -0.3500000   0.2333333  -0.3500000), wk =   0.0219780
        k(   64) = (  -0.3375000   0.2250000  -0.3375000), wk =   0.0219780
        k(   65) = (  -0.3250000   0.2166667  -0.3250000), wk =   0.0219780
        k(   66) = (  -0.3125000   0.2083333  -0.3125000), wk =   0.0219780
        k(   67) = (  -0.3000000   0.2000000  -0.3000000), wk =   0.0219780
        k(   68) = (  -0.2875000   0.1916667  -0.2875000), wk =   0.0219780
        k(   69) = (  -0.2750000   0.1833333  -0.2750000), wk =   0.0219780
        k(   70) = (  -0.2625000   0.1750000  -0.2625000), wk =   0.0219780
        k(   71) = (  -0.2500000   0.1666667  -0.2500000), wk =   0.0219780
        k(   72) = (  -0.2375000   0.1583333  -0.2375000), wk =   0.0219780
        k(   73) = (  -0.2250000   0.1500000  -0.2250000), wk =   0.0219780
        k(   74) = (  -0.2125000   0.1416667  -0.2125000), wk =   0.0219780
        k(   75) = (  -0.2000000   0.1333333  -0.2000000), wk =   0.0219780
        k(   76) = (  -0.1875000   0.1250000  -0.1875000), wk =   0.0219780
        k(   77) = (  -0.1750000   0.1166667  -0.1750000), wk =   0.0219780
        k(   78) = (  -0.1625000   0.1083333  -0.1625000), wk =   0.0219780
        k(   79) = (  -0.1500000   0.1000000  -0.1500000), wk =   0.0219780
        k(   80) = (  -0.1375000   0.0916667  -0.1375000), wk =   0.0219780
        k(   81) = (  -0.1250000   0.0833333  -0.1250000), wk =   0.0219780
        k(   82) = (  -0.1125000   0.0750000  -0.1125000), wk =   0.0219780
        k(   83) = (  -0.1000000   0.0666667  -0.1000000), wk =   0.0219780
        k(   84) = (  -0.0875000   0.0583333  -0.0875000), wk =   0.0219780
        k(   85) = (  -0.0750000   0.0500000  -0.0750000), wk =   0.0219780
        k(   86) = (  -0.0625000   0.0416667  -0.0625000), wk =   0.0219780
        k(   87) = (  -0.0500000   0.0333333  -0.0500000), wk =   0.0219780
        k(   88) = (  -0.0375000   0.0250000  -0.0375000), wk =   0.0219780
        k(   89) = (  -0.0250000   0.0166667  -0.0250000), wk =   0.0219780
        k(   90) = (  -0.0125000   0.0083333  -0.0125000), wk =   0.0219780
        k(   91) = (   0.0000000   0.0000000   0.0000000), wk =   0.0219780

     Dense  grid:    35749 G-vectors     FFT dimensions: (  48,  48,  48)

     Smooth grid:    12627 G-vectors     FFT dimensions: (  36,  36,  36)

     Dynamical RAM for                 wfc:       0.19 MB

     Dynamical RAM for     wfc (w. buffer):       0.19 MB

     Dynamical RAM for           str. fact:       0.55 MB

     Dynamical RAM for           local pot:       0.00 MB

     Dynamical RAM for          nlocal pot:       0.87 MB

     Dynamical RAM for                qrad:       1.61 MB

     Dynamical RAM for          rho,v,vnew:       4.17 MB

     Dynamical RAM for           G-vectors:       2.14 MB

     Dynamical RAM for          h,s,v(r/c):       0.01 MB

     Dynamical RAM for          <psi|beta>:       0.00 MB

     Dynamical RAM for                 psi:       0.39 MB

     Dynamical RAM for                hpsi:       0.39 MB

     Dynamical RAM for                spsi:       0.39 MB

     Dynamical RAM for      wfcinit/wfcrot:       0.39 MB

     Dynamical RAM for           addusdens:     102.55 MB

     Estimated static dynamical RAM per process >      14.84 MB

     Estimated max dynamical RAM per process >     117.39 MB

     The potential is recalculated from file :
     ./tmp/silicon.save/charge-density

     Starting wfcs are    8 randomized atomic wfcs

     Band Structure Calculation
     Davidson diagonalization with overlap

     Computing kpt #:     1  of    91
     total cpu time spent up to now is        0.6 secs

     Computing kpt #:     2  of    91
     total cpu time spent up to now is        0.7 secs

     Computing kpt #:     3  of    91
     total cpu time spent up to now is        0.9 secs

     Computing kpt #:     4  of    91
     total cpu time spent up to now is        1.0 secs

     Computing kpt #:     5  of    91
     total cpu time spent up to now is        1.2 secs

     Computing kpt #:     6  of    91
     total cpu time spent up to now is        1.4 secs

     Computing kpt #:     7  of    91
     total cpu time spent up to now is        1.6 secs

     Computing kpt #:     8  of    91
     total cpu time spent up to now is        1.8 secs

     Computing kpt #:     9  of    91
     total cpu time spent up to now is        2.0 secs

     Computing kpt #:    10  of    91
     total cpu time spent up to now is        2.3 secs

     Computing kpt #:    11  of    91
     total cpu time spent up to now is        2.5 secs

     Computing kpt #:    12  of    91
     total cpu time spent up to now is        2.7 secs

     Computing kpt #:    13  of    91
     total cpu time spent up to now is        2.8 secs

     Computing kpt #:    14  of    91
     total cpu time spent up to now is        3.0 secs

     Computing kpt #:    15  of    91
     total cpu time spent up to now is        3.2 secs

     Computing kpt #:    16  of    91
     total cpu time spent up to now is        3.4 secs

     Computing kpt #:    17  of    91
     total cpu time spent up to now is        3.5 secs

     Computing kpt #:    18  of    91
     total cpu time spent up to now is        3.7 secs

     Computing kpt #:    19  of    91
     total cpu time spent up to now is        3.8 secs

     Computing kpt #:    20  of    91
     total cpu time spent up to now is        4.0 secs

     Computing kpt #:    21  of    91
     total cpu time spent up to now is        4.2 secs

     Computing kpt #:    22  of    91
     total cpu time spent up to now is        4.4 secs

     Computing kpt #:    23  of    91
     total cpu time spent up to now is        4.5 secs

     Computing kpt #:    24  of    91
     total cpu time spent up to now is        4.7 secs

     Computing kpt #:    25  of    91
     total cpu time spent up to now is        4.9 secs

     Computing kpt #:    26  of    91
     total cpu time spent up to now is        5.1 secs

     Computing kpt #:    27  of    91
     total cpu time spent up to now is        5.3 secs

     Computing kpt #:    28  of    91
     total cpu time spent up to now is        5.4 secs

     Computing kpt #:    29  of    91
     total cpu time spent up to now is        5.6 secs

     Computing kpt #:    30  of    91
     total cpu time spent up to now is        5.8 secs

     Computing kpt #:    31  of    91
     total cpu time spent up to now is        6.0 secs

     Computing kpt #:    32  of    91
     total cpu time spent up to now is        6.2 secs

     Computing kpt #:    33  of    91
     total cpu time spent up to now is        6.5 secs

     Computing kpt #:    34  of    91
     total cpu time spent up to now is        6.6 secs

     Computing kpt #:    35  of    91
     total cpu time spent up to now is        6.8 secs

     Computing kpt #:    36  of    91
     total cpu time spent up to now is        6.9 secs

     Computing kpt #:    37  of    91
     total cpu time spent up to now is        7.1 secs

     Computing kpt #:    38  of    91
     total cpu time spent up to now is        7.3 secs

     Computing kpt #:    39  of    91
     total cpu time spent up to now is        7.4 secs

     Computing kpt #:    40  of    91
     total cpu time spent up to now is        7.6 secs

     Computing kpt #:    41  of    91
     total cpu time spent up to now is        7.7 secs

     Computing kpt #:    42  of    91
     total cpu time spent up to now is        7.9 secs

     Computing kpt #:    43  of    91
     total cpu time spent up to now is        8.0 secs

     Computing kpt #:    44  of    91
     total cpu time spent up to now is        8.2 secs

     Computing kpt #:    45  of    91
     total cpu time spent up to now is        8.3 secs

     Computing kpt #:    46  of    91
     total cpu time spent up to now is        8.5 secs

     Computing kpt #:    47  of    91
     total cpu time spent up to now is        8.7 secs

     Computing kpt #:    48  of    91
     total cpu time spent up to now is        8.8 secs

     Computing kpt #:    49  of    91
     total cpu time spent up to now is        9.0 secs

     Computing kpt #:    50  of    91
     total cpu time spent up to now is        9.2 secs

     Computing kpt #:    51  of    91
     total cpu time spent up to now is        9.3 secs

     Computing kpt #:    52  of    91
     total cpu time spent up to now is        9.5 secs

     Computing kpt #:    53  of    91
     total cpu time spent up to now is        9.7 secs

     Computing kpt #:    54  of    91
     total cpu time spent up to now is        9.9 secs

     Computing kpt #:    55  of    91
     total cpu time spent up to now is       10.1 secs

     Computing kpt #:    56  of    91
     total cpu time spent up to now is       10.3 secs

     Computing kpt #:    57  of    91
     total cpu time spent up to now is       10.6 secs

     Computing kpt #:    58  of    91
     c_bands:  1 eigenvalues not converged
     total cpu time spent up to now is       10.9 secs

     Computing kpt #:    59  of    91
     total cpu time spent up to now is       11.2 secs

     Computing kpt #:    60  of    91
     total cpu time spent up to now is       11.4 secs

     Computing kpt #:    61  of    91
     total cpu time spent up to now is       11.6 secs

     Computing kpt #:    62  of    91
     total cpu time spent up to now is       11.9 secs

     Computing kpt #:    63  of    91
     total cpu time spent up to now is       12.0 secs

     Computing kpt #:    64  of    91
     total cpu time spent up to now is       12.2 secs

     Computing kpt #:    65  of    91
     total cpu time spent up to now is       12.4 secs

     Computing kpt #:    66  of    91
     total cpu time spent up to now is       12.5 secs

     Computing kpt #:    67  of    91
     total cpu time spent up to now is       12.7 secs

     Computing kpt #:    68  of    91
     total cpu time spent up to now is       12.8 secs

     Computing kpt #:    69  of    91
     total cpu time spent up to now is       13.0 secs

     Computing kpt #:    70  of    91
     total cpu time spent up to now is       13.1 secs

     Computing kpt #:    71  of    91
     total cpu time spent up to now is       13.3 secs

     Computing kpt #:    72  of    91
     total cpu time spent up to now is       13.4 secs

     Computing kpt #:    73  of    91
     total cpu time spent up to now is       13.6 secs

     Computing kpt #:    74  of    91
     total cpu time spent up to now is       13.7 secs

     Computing kpt #:    75  of    91
     total cpu time spent up to now is       13.9 secs

     Computing kpt #:    76  of    91
     total cpu time spent up to now is       14.1 secs

     Computing kpt #:    77  of    91
     total cpu time spent up to now is       14.2 secs

     Computing kpt #:    78  of    91
     total cpu time spent up to now is       14.4 secs

     Computing kpt #:    79  of    91
     total cpu time spent up to now is       14.6 secs

     Computing kpt #:    80  of    91
     total cpu time spent up to now is       14.8 secs

     Computing kpt #:    81  of    91
     total cpu time spent up to now is       15.0 secs

     Computing kpt #:    82  of    91
     total cpu time spent up to now is       15.2 secs

     Computing kpt #:    83  of    91
     total cpu time spent up to now is       15.4 secs

     Computing kpt #:    84  of    91
     total cpu time spent up to now is       15.6 secs

     Computing kpt #:    85  of    91
     total cpu time spent up to now is       15.7 secs

     Computing kpt #:    86  of    91
     total cpu time spent up to now is       15.9 secs

     Computing kpt #:    87  of    91
     total cpu time spent up to now is       16.1 secs

     Computing kpt #:    88  of    91
     total cpu time spent up to now is       16.3 secs

     Computing kpt #:    89  of    91
     total cpu time spent up to now is       16.4 secs

     Computing kpt #:    90  of    91
     total cpu time spent up to now is       16.6 secs

     Computing kpt #:    91  of    91
     total cpu time spent up to now is       16.7 secs

     ethr =  1.25E-10,  avg # of iterations = 34.5

     total cpu time spent up to now is       16.7 secs

     End of band structure calculation

          k = 0.5000 0.5000 0.5000 (  1568 PWs)   bands (ev):

    -3.3525  -0.6941   5.1344   5.1344   7.9462   9.6936   9.6936  14.1209

          k = 0.4750 0.4750 0.4750 (  1574 PWs)   bands (ev):

    -3.3888  -0.6422   5.1389   5.1389   7.9513   9.6991   9.6991  14.1292

          k = 0.4500 0.4500 0.4500 (  1580 PWs)   bands (ev):

    -3.4899  -0.4942   5.1525   5.1525   7.9668   9.7149   9.7149  14.1535

          k = 0.4250 0.4250 0.4250 (  1586 PWs)   bands (ev):

    -3.6378  -0.2684   5.1751   5.1751   7.9924   9.7401   9.7401  14.1917

          k = 0.4000 0.4000 0.4000 (  1586 PWs)   bands (ev):

    -3.8138   0.0165   5.2067   5.2067   8.0282   9.7727   9.7727  14.2391

          k = 0.3750 0.3750 0.3750 (  1592 PWs)   bands (ev):

    -4.0037   0.3458   5.2472   5.2472   8.0739   9.8096   9.8096  14.2860

          k = 0.3500 0.3500 0.3500 (  1597 PWs)   bands (ev):

    -4.1975   0.7094   5.2965   5.2965   8.1292   9.8467   9.8467  14.3104

          k = 0.3250 0.3250 0.3250 (  1594 PWs)   bands (ev):

    -4.3887   1.1001   5.3545   5.3545   8.1938   9.8787   9.8787  14.2659

          k = 0.3000 0.3000 0.3000 (  1600 PWs)   bands (ev):

    -4.5732   1.5131   5.4209   5.4209   8.2670   9.8989   9.8989  13.9798

          k = 0.2750 0.2750 0.2750 (  1588 PWs)   bands (ev):

    -4.7480   1.9447   5.4953   5.4953   8.3482   9.9001   9.9001  13.7451

          k = 0.2500 0.2500 0.2500 (  1582 PWs)   bands (ev):

    -4.9112   2.3916   5.5771   5.5771   8.4361   9.8755   9.8755  13.3989

          k = 0.2250 0.2250 0.2250 (  1579 PWs)   bands (ev):

    -5.0613   2.8511   5.6655   5.6655   8.5293   9.8205   9.8205  12.9767

          k = 0.2000 0.2000 0.2000 (  1576 PWs)   bands (ev):

    -5.1974   3.3201   5.7593   5.7593   8.6258   9.7350   9.7350  12.5368

          k = 0.1750 0.1750 0.1750 (  1570 PWs)   bands (ev):

    -5.3187   3.7952   5.8568   5.8568   8.7227   9.6233   9.6233  12.0891

          k = 0.1500 0.1500 0.1500 (  1570 PWs)   bands (ev):

    -5.4246   4.2717   5.9557   5.9557   8.8159   9.4936   9.4936  11.6408

          k = 0.1250 0.1250 0.1250 (  1570 PWs)   bands (ev):

    -5.5149   4.7430   6.0531   6.0531   8.8996   9.3563   9.3563  11.2010

          k = 0.1000 0.1000 0.1000 (  1570 PWs)   bands (ev):

    -5.5890   5.1994   6.1447   6.1447   8.9653   9.2224   9.2224  10.7834

          k = 0.0750 0.0750 0.0750 (  1570 PWs)   bands (ev):

    -5.6469   5.6242   6.2256   6.2256   9.0009   9.1030   9.1030  10.4118

          k = 0.0500 0.0500 0.0500 (  1588 PWs)   bands (ev):

    -5.6884   5.9895   6.2899   6.2899   8.9939   9.0082   9.0082  10.1217

          k = 0.0250 0.0250 0.0250 (  1615 PWs)   bands (ev):

    -5.7133   6.2493   6.3315   6.3315   8.9471   8.9471   8.9522   9.9465

          k = 0.0000 0.0000 0.0000 (  1591 PWs)   bands (ev):

    -5.7217   6.3460   6.3460   6.3460   8.9259   8.9259   8.9259   9.8907

          k = 0.0333 0.0000 0.0000 (  1615 PWs)   bands (ev):

    -5.7167   6.3134   6.3244   6.3244   8.9136   8.9535   8.9535   9.9227

          k = 0.0667 0.0000 0.0000 (  1595 PWs)   bands (ev):

    -5.7020   6.2191   6.2626   6.2626   8.8775   9.0336   9.0336  10.0143

          k = 0.1000 0.0000 0.0000 (  1579 PWs)   bands (ev):

    -5.6773   6.0721   6.1672   6.1672   8.8193   9.1593   9.1593  10.1545

          k = 0.1333 0.0000 0.0000 (  1579 PWs)   bands (ev):

    -5.6429   5.8835   6.0467   6.0467   8.7420   9.3221   9.3221  10.3278

          k = 0.1667 0.0000 0.0000 (  1571 PWs)   bands (ev):

    -5.5986   5.6635   5.9089   5.9089   8.6487   9.5141   9.5141  10.5159

          k = 0.2000 0.0000 0.0000 (  1571 PWs)   bands (ev):

    -5.5445   5.4204   5.7601   5.7601   8.5429   9.7289   9.7289  10.6959

          k = 0.2333 0.0000 0.0000 (  1575 PWs)   bands (ev):

    -5.4807   5.1606   5.6053   5.6053   8.4280   9.9614   9.9614  10.8369

          k = 0.2667 0.0000 0.0000 (  1575 PWs)   bands (ev):

    -5.4072   4.8885   5.4479   5.4479   8.3070  10.2081  10.2081  10.9005

          k = 0.3000 0.0000 0.0000 (  1575 PWs)   bands (ev):

    -5.3240   4.6075   5.2906   5.2906   8.1826  10.4660  10.4660  10.8594

          k = 0.3333 0.0000 0.0000 (  1579 PWs)   bands (ev):

    -5.2312   4.3199   5.1353   5.1353   8.0572  10.7205  10.7332  10.7332

          k = 0.3667 0.0000 0.0000 (  1591 PWs)   bands (ev):

    -5.1289   4.0275   4.9835   4.9835   7.9328  10.5155  11.0079  11.0079

          k = 0.4000 0.0000 0.0000 (  1599 PWs)   bands (ev):

    -5.0171   3.7314   4.8363   4.8363   7.8111  10.2742  11.2891  11.2891

          k = 0.4333 0.0000 0.0000 (  1587 PWs)   bands (ev):

    -4.8959   3.4327   4.6945   4.6945   7.6934  10.0163  11.5757  11.5757

          k = 0.4667 0.0000 0.0000 (  1587 PWs)   bands (ev):

    -4.7653   3.1322   4.5587   4.5587   7.5809   9.7535  11.8669  11.8669

          k = 0.5000 0.0000 0.0000 (  1587 PWs)   bands (ev):

    -4.6255   2.8304   4.4296   4.4296   7.4748   9.4930  12.1622  12.1622

          k = 0.5333 0.0000 0.0000 (  1596 PWs)   bands (ev):

    -4.4767   2.5278   4.3075   4.3075   7.3758   9.2391  12.4611  12.4611

          k = 0.5667 0.0000 0.0000 (  1596 PWs)   bands (ev):

    -4.3188   2.2251   4.1928   4.1928   7.2847   8.9945  12.7632  12.7632

          k = 0.6000 0.0000 0.0000 (  1588 PWs)   bands (ev):

    -4.1520   1.9227   4.0857   4.0857   7.2021   8.7612  13.0683  13.0683

          k = 0.6333 0.0000 0.0000 (  1580 PWs)   bands (ev):

    -3.9765   1.6209   3.9866   3.9866   7.1287   8.5405  13.3761  13.3761

          k = 0.6667 0.0000 0.0000 (  1580 PWs)   bands (ev):

    -3.7923   1.3203   3.8955   3.8955   7.0649   8.3331  13.6865  13.6865

          k = 0.7000 0.0000 0.0000 (  1584 PWs)   bands (ev):

    -3.5998   1.0214   3.8127   3.8127   7.0111   8.1396  13.9992  13.9992

          k = 0.7333 0.0000 0.0000 (  1600 PWs)   bands (ev):

    -3.3990   0.7245   3.7383   3.7383   6.9679   7.9603  14.3141  14.3141

          k = 0.7667 0.0000 0.0000 (  1600 PWs)   bands (ev):

    -3.1901   0.4301   3.6724   3.6724   6.9355   7.7955  14.6311  14.6311

          k = 0.8000 0.0000 0.0000 (  1604 PWs)   bands (ev):

    -2.9734   0.1388   3.6151   3.6151   6.9144   7.6451  14.9496  14.9496

          k = 0.8333 0.0000 0.0000 (  1600 PWs)   bands (ev):

    -2.7491  -0.1491   3.5666   3.5666   6.9048   7.5092  15.2689  15.2689

          k = 0.8667 0.0000 0.0000 (  1604 PWs)   bands (ev):

    -2.5173  -0.4332   3.5267   3.5267   6.9071   7.3876  15.5876  15.5876

          k = 0.9000 0.0000 0.0000 (  1596 PWs)   bands (ev):

    -2.2785  -0.7129   3.4957   3.4957   6.9216   7.2802  15.9024  15.9024

          k = 0.9333 0.0000 0.0000 (  1596 PWs)   bands (ev):

    -2.0328  -0.9879   3.4735   3.4735   6.9486   7.1868  16.2047  16.2047

          k = 0.9667 0.0000 0.0000 (  1588 PWs)   bands (ev):

    -1.7805  -1.2577   3.4602   3.4602   6.9883   7.1071  16.4670  16.4670

          k = 1.0000 0.0000 0.0000 (  1588 PWs)   bands (ev):

    -1.5221  -1.5221   3.4557   3.4557   7.0411   7.0411  16.5921  16.5921

          k = 1.0000 0.0250 0.0250 (  1588 PWs)   bands (ev):

    -1.5242  -1.5161   3.4175   3.4602   7.0462   7.0975  16.5275  16.5594

          k = 1.0000 0.0500 0.0500 (  1588 PWs)   bands (ev):

    -1.5311  -1.4982   3.3103   3.4735   7.0617   7.2594  16.3527  16.4654

          k = 1.0000 0.0750 0.0750 (  1598 PWs)   bands (ev):

    -1.5433  -1.4683   3.1524   3.4957   7.0873   7.5092  16.1052  16.3205

          k = 1.0000 0.1000 0.1000 (  1596 PWs)   bands (ev):

    -1.5624  -1.4265   2.9645   3.5267   7.1232   7.8275  15.8160  16.1371

          k = 1.0000 0.1250 0.1250 (  1586 PWs)   bands (ev):

    -1.5900  -1.3728   2.7648   3.5663   7.1691   8.1979  15.5048  15.9263

          k = 1.0000 0.1500 0.1500 (  1594 PWs)   bands (ev):

    -1.6284  -1.3072   2.5672   3.6145   7.2249   8.6079  15.1830  15.6969

          k = 1.0000 0.1750 0.1750 (  1600 PWs)   bands (ev):

    -1.6800  -1.2297   2.3826   3.6711   7.2905   9.0490  14.8574  15.4555

          k = 1.0000 0.2000 0.2000 (  1596 PWs)   bands (ev):

    -1.7472  -1.1403   2.2192   3.7358   7.3657   9.5147  14.5322  15.1016

          k = 1.0000 0.2250 0.2250 (  1596 PWs)   bands (ev):

    -1.8320  -1.0392   2.0829   3.8084   7.4501  10.0000  14.2102  14.7670

          k = 1.0000 0.2500 0.2500 (  1580 PWs)   bands (ev):

    -1.9355  -0.9263   1.9776   3.8887   7.5434  10.5007  13.8933  14.4426

          k = 0.9667 0.2417 0.2417 (  1592 PWs)   bands (ev):

    -1.9397  -0.9277   2.0233   3.8652   7.5172  10.3381  13.9155  14.3241

          k = 0.9333 0.2333 0.2333 (  1593 PWs)   bands (ev):

    -2.0273  -0.8501   2.0982   3.8507   7.5037  10.1889  13.8247  14.1081

          k = 0.9000 0.2250 0.2250 (  1595 PWs)   bands (ev):

    -2.1757  -0.7116   2.1976   3.8454   7.5026  10.0540  13.6881  13.8846

          k = 0.8667 0.2167 0.2167 (  1595 PWs)   bands (ev):

    -2.3587  -0.5350   2.3177   3.8494   7.5135   9.9342  13.5356  13.6600

          k = 0.8333 0.2083 0.2083 (  1603 PWs)   bands (ev):

    -2.5595  -0.3344   2.4552   3.8628   7.5359   9.8307  13.3782  13.4359

          k = 0.8000 0.2000 0.2000 (  1603 PWs)   bands (ev):

    -2.7683  -0.1171   2.6074   3.8857   7.5687   9.7449  13.2130  13.2203

          k = 0.7667 0.1917 0.1917 (  1597 PWs)   bands (ev):

    -2.9798   0.1131   2.7719   3.9181   7.6109   9.6782  12.9915  13.0632

          k = 0.7333 0.1833 0.1833 (  1598 PWs)   bands (ev):

    -3.1902   0.3541   2.9465   3.9600   7.6609   9.6325  12.7717  12.9071

          k = 0.7000 0.1750 0.1750 (  1598 PWs)   bands (ev):

    -3.3973   0.6045   3.1294   4.0113   7.7169   9.6097  12.5536  12.7514

          k = 0.6667 0.1667 0.1667 (  1596 PWs)   bands (ev):

    -3.5993   0.8635   3.3190   4.0721   7.7767   9.6118  12.3377  12.5948

          k = 0.6333 0.1583 0.1583 (  1592 PWs)   bands (ev):

    -3.7951   1.1306   3.5136   4.1423   7.8382   9.6407  12.1242  12.4360

          k = 0.6000 0.1500 0.1500 (  1592 PWs)   bands (ev):

    -3.9838   1.4053   3.7118   4.2216   7.8998   9.6976  11.9136  12.2732

          k = 0.5667 0.1417 0.1417 (  1594 PWs)   bands (ev):

    -4.1646   1.6872   3.9122   4.3101   7.9601   9.7824  11.7069  12.1044

          k = 0.5333 0.1333 0.1333 (  1592 PWs)   bands (ev):

    -4.3369   1.9761   4.1135   4.4075   8.0186   9.8933  11.5056  11.9277

          k = 0.5000 0.1250 0.1250 (  1588 PWs)   bands (ev):

    -4.5003   2.2715   4.3144   4.5136   8.0759  10.0258  11.3126  11.7416

          k = 0.4667 0.1167 0.1167 (  1588 PWs)   bands (ev):

    -4.6543   2.5731   4.5137   4.6280   8.1327  10.1698  11.1351  11.5450

          k = 0.4333 0.1083 0.1083 (  1585 PWs)   bands (ev):

    -4.7988   2.8803   4.7103   4.7504   8.1903  10.3015  10.9922  11.3376

          k = 0.4000 0.1000 0.1000 (  1583 PWs)   bands (ev):

    -4.9333   3.1926   4.8802   4.9029   8.2498  10.3632  10.9347  11.1199

          k = 0.3667 0.0917 0.0917 (  1583 PWs)   bands (ev):

    -5.0578   3.5093   5.0169   5.0904   8.3120  10.3046  10.8935  11.0015

          k = 0.3333 0.0833 0.0833 (  1577 PWs)   bands (ev):

    -5.1719   3.8293   5.1596   5.2716   8.3775  10.1733  10.6605  11.1253

          k = 0.3000 0.0750 0.0750 (  1573 PWs)   bands (ev):

    -5.2756   4.1513   5.3072   5.4450   8.4463  10.0188  10.4239  11.2227

          k = 0.2667 0.0667 0.0667 (  1576 PWs)   bands (ev):

    -5.3687   4.4735   5.4582   5.6092   8.5177   9.8593  10.1872  11.2290

          k = 0.2333 0.0583 0.0583 (  1570 PWs)   bands (ev):

    -5.4511   4.7936   5.6108   5.7627   8.5904   9.7019   9.9542  11.1152

          k = 0.2000 0.0500 0.0500 (  1568 PWs)   bands (ev):

    -5.5226   5.1079   5.7621   5.9033   8.6628   9.5495   9.7296  10.9106

          k = 0.1667 0.0417 0.0417 (  1569 PWs)   bands (ev):

    -5.5833   5.4112   5.9087   6.0291   8.7321   9.4039   9.5185  10.6659

          k = 0.1333 0.0333 0.0333 (  1573 PWs)   bands (ev):

    -5.6331   5.6959   6.0455   6.1376   8.7955   9.2665   9.3271  10.4206

          k = 0.1000 0.0250 0.0250 (  1579 PWs)   bands (ev):

    -5.6718   5.9504   6.1659   6.2260   8.8495   9.1401   9.1632  10.2029

          k = 0.0667 0.0167 0.0167 (  1592 PWs)   bands (ev):

    -5.6995   6.1578   6.2618   6.2917   8.8910   9.0314   9.0358  10.0335

          k = 0.0333 0.0083 0.0083 (  1613 PWs)   bands (ev):

    -5.7161   6.2966   6.3242   6.3323   8.9170   8.9541   8.9544   9.9269

          k = 0.0000 0.0000 0.0000 (  1591 PWs)   bands (ev):

    -5.7217   6.3460   6.3460   6.3460   8.9259   8.9259   8.9259   9.8907

     Writing all to output data dir ./tmp/silicon.save/
 
     init_run     :      0.23s CPU      0.27s WALL (       1 calls)
     electrons    :     16.19s CPU     16.34s WALL (       1 calls)

     Called by init_run:
     wfcinit      :      0.00s CPU      0.00s WALL (       1 calls)
     wfcinit:atom :      0.01s CPU      0.01s WALL (      91 calls)
     wfcinit:wfcr :      0.58s CPU      0.59s WALL (      91 calls)
     potinit      :      0.03s CPU      0.03s WALL (       1 calls)
     hinit0       :      0.14s CPU      0.17s WALL (       1 calls)

     Called by electrons:
     c_bands      :     16.19s CPU     16.34s WALL (       1 calls)
     v_of_rho     :      0.03s CPU      0.03s WALL (       1 calls)
     v_h          :      0.00s CPU      0.00s WALL (       1 calls)
     v_xc         :      0.03s CPU      0.03s WALL (       1 calls)
     newd         :      0.02s CPU      0.04s WALL (       1 calls)

     Called by c_bands:
     init_us_2    :      0.03s CPU      0.03s WALL (      91 calls)
     init_us_2:cp :      0.03s CPU      0.03s WALL (      91 calls)
     cegterg      :     15.30s CPU     15.43s WALL (     206 calls)

     Called by sum_band:

     Called by *egterg:
     cdiaghg      :      0.27s CPU      0.28s WALL (    3234 calls)
     cegterg:over :      0.68s CPU      0.68s WALL (    3143 calls)
     cegterg:upda :      0.18s CPU      0.18s WALL (    3143 calls)
     cegterg:last :      0.39s CPU      0.39s WALL (    2176 calls)
     h_psi        :     13.78s CPU     13.90s WALL (    3440 calls)
     s_psi        :      0.35s CPU      0.35s WALL (    3440 calls)
     g_psi        :      0.08s CPU      0.08s WALL (    3143 calls)

     Called by h_psi:
     h_psi:calbec :      0.41s CPU      0.42s WALL (    3440 calls)
     vloc_psi     :     12.93s CPU     13.04s WALL (    3440 calls)
     add_vuspsi   :      0.39s CPU      0.40s WALL (    3440 calls)

     General routines
     calbec       :      0.41s CPU      0.41s WALL (    3440 calls)
     fft          :      0.01s CPU      0.01s WALL (      13 calls)
     ffts         :      0.00s CPU      0.00s WALL (       1 calls)
     fftw         :     12.11s CPU     12.22s WALL (   36836 calls)
     interpolate  :      0.00s CPU      0.00s WALL (       1 calls)
     davcio       :      0.02s CPU      0.02s WALL (     182 calls)
 
     Parallel routines
 
     PWSCF        :     16.55s CPU     16.76s WALL

 
   This run was terminated on:  16:21:58  27Oct2023            

=------------------------------------------------------------------------------=
   JOB DONE.
=------------------------------------------------------------------------------=
