
     Program PWSCF v.7.2 starts on  8Nov2023 at 17:15: 1 

     This program is part of the open-source Quantum ESPRESSO suite
     for quantum simulation of materials; please cite
         "P. Giannozzi et al., J. Phys.:Condens. Matter 21 395502 (2009);
         "P. Giannozzi et al., J. Phys.:Condens. Matter 29 465901 (2017);
         "P. Giannozzi et al., J. Chem. Phys. 152 154105 (2020);
          URL http://www.quantum-espresso.org", 
     in publications or presentations arising from this work. More details at
     http://www.quantum-espresso.org/quote

     Parallel version (MPI), running on     4 processors

     MPI processes distributed on     1 nodes
     9288 MiB available memory on the printing compute node when the environment starts
 
     Reading input from espresso.pwi
Warning: card &CELL ignored
Warning: card / ignored

     Current dimensions of program PWSCF are:
     Max number of different atomic species (ntypx) = 10
     Max number of k-points (npk) =  40000
     Max angular momentum in pseudopotentials (lmaxx) =  4
     Presently no symmetry can be used with electric field

 
     R & G space division:  proc/nbgrp/npool/nimage =       4
     Subspace diagonalization in iterative solution of the eigenvalue problem:
     a serial algorithm will be used

 
     Parallelization info
     --------------------
     sticks:   dense  smooth     PW     G-vecs:    dense   smooth      PW
     Min        7666    3832    958              1011072   357408   44730
     Max        7670    3833    959              1011073   357411   44733
     Sum       30669   15329   3833              4044289  1429635  178925
 
     Using Slab Decomposition
 


     bravais-lattice index     =            0
     lattice parameter (alat)  =      28.3459  a.u.
     unit-cell volume          =   22775.6289 (a.u.)^3
     number of atoms/cell      =            3
     number of atomic types    =            2
     number of electrons       =         8.00
     number of Kohn-Sham states=            8
     kinetic-energy cutoff     =      60.0000  Ry
     charge density cutoff     =     480.0000  Ry
     scf convergence threshold =      1.0E-07
     mixing beta               =       0.7000
     number of iterations used =            8  plain     mixing
     Exchange-correlation=  SLA  PW   PBX  PBC
                           (   1   4   3   4   0   0   0)

     celldm(1)=  28.345892  celldm(2)=   0.000000  celldm(3)=   0.000000
     celldm(4)=   0.000000  celldm(5)=   0.000000  celldm(6)=   0.000000

     crystal axes: (cart. coord. in units of alat)
               a(1) = (   1.000000   0.000000   0.000000 )  
               a(2) = (   0.000000   1.000000   0.000000 )  
               a(3) = (   0.000000   0.000000   1.000000 )  

     reciprocal axes: (cart. coord. in units 2 pi/alat)
               b(1) = (  1.000000  0.000000  0.000000 )  
               b(2) = (  0.000000  1.000000  0.000000 )  
               b(3) = (  0.000000  0.000000  1.000000 )  


     PseudoPot. # 1 for O  read from file:
     /home/krojas/github_files/MatSciToolKit/tutorial/example_ase_ir_2/ir_1/o_pbe_v1.2.uspp.F.UPF
     MD5 check sum: 734c27235a0248c51dbae37a1fbe46ec
     Pseudo is Ultrasoft + core correction, Zval =  6.0
     Generated by new atomic code, or converted to UPF format
     Using radial grid of  737 points,  5 beta functions with: 
                l(1) =   0
                l(2) =   0
                l(3) =   1
                l(4) =   1
                l(5) =   2
     Q(r) pseudized with  8 coefficients,  rinner =    0.900   0.900   0.900
                                                       0.900   0.900

     PseudoPot. # 2 for H  read from file:
     /home/krojas/github_files/MatSciToolKit/tutorial/example_ase_ir_2/ir_1/h_pbe_v1.4.uspp.F.UPF
     MD5 check sum: 761ae9a214b05c3daf00ab9f6b793d6f
     Pseudo is Ultrasoft, Zval =  1.0
     Generated by new atomic code, or converted to UPF format
     Using radial grid of  615 points,  2 beta functions with: 
                l(1) =   0
                l(2) =   0
     Q(r) pseudized with  8 coefficients,  rinner =    0.700

     atomic species   valence    mass     pseudopotential
        O              6.00    15.99900     O ( 1.00)
        H              1.00     1.00800     H ( 1.00)

     No symmetry found



   Cartesian axes

     site n.     atom                  positions (alat units)
         1           O   tau(   1) = (   0.5000000   0.5000000   0.5201804  )
         2           H   tau(   2) = (   0.5000000   0.5506813   0.4798196  )
         3           H   tau(   3) = (   0.5000000   0.4486521   0.4798196  )

     number of k points=     1  Gaussian smearing, width (Ry)=  0.0100
                       cart. coord. in units 2pi/alat
        k(    1) = (   0.0000000   0.0000000   0.0000000), wk =   2.0000000

     Dense  grid:  4044289 G-vectors     FFT dimensions: ( 200, 200, 200)

     Smooth grid:  1429635 G-vectors     FFT dimensions: ( 144, 144, 144)

     Estimated max dynamical RAM per process >       2.25 GB

     Estimated total dynamical RAM >       9.02 GB

     Initial potential from superposition of free atoms

     starting charge       8.0000, renormalised to       8.0000

     negative rho (up, down):  5.060E-04 0.000E+00
 
     Adding external electric field

     Computed dipole along edir(2) : 
        Dipole                0.0000 Ry au,          0.0000 Debye
        Dipole field          0.0000 Ry au, 
 
        Potential amp.       -0.0000 Ry
        Total length         28.3431 bohr
 
     Starting wfcs are    6 randomized atomic wfcs +    2 random wfcs

     total cpu time spent up to now is        8.4 secs

     per-process dynamical memory:   488.9 Mb

     Self-consistent Calculation

     iteration #  1     ecut=    60.00 Ry     beta= 0.70
     Davidson diagonalization with overlap
     ethr =  1.00E-02,  avg # of iterations =  8.0

     negative rho (up, down):  1.825E-03 0.000E+00
 
     Adding external electric field

     Computed dipole along edir(2) : 
        Dipole               -0.0088 Ry au,         -0.0223 Debye
        Dipole field         -0.0000 Ry au, 
 
        Potential amp.        0.0003 Ry
        Total length         28.3431 bohr
 

     total cpu time spent up to now is       19.7 secs

     total energy              =     -34.47331610 Ry
     estimated scf accuracy    <       0.45920572 Ry

     iteration #  2     ecut=    60.00 Ry     beta= 0.70
     Davidson diagonalization with overlap
     ethr =  5.74E-03,  avg # of iterations =  2.0

     negative rho (up, down):  2.095E-03 0.000E+00
 
     Adding external electric field

     Computed dipole along edir(2) : 
        Dipole               -0.0030 Ry au,         -0.0077 Debye
        Dipole field         -0.0000 Ry au, 
 
        Potential amp.        0.0001 Ry
        Total length         28.3431 bohr
 

     total cpu time spent up to now is       29.8 secs

     total energy              =     -34.58724388 Ry
     estimated scf accuracy    <       0.44725189 Ry

     iteration #  3     ecut=    60.00 Ry     beta= 0.70
     Davidson diagonalization with overlap
     ethr =  5.59E-03,  avg # of iterations =  2.0

     negative rho (up, down):  2.376E-03 0.000E+00
 
     Adding external electric field

     Computed dipole along edir(2) : 
        Dipole               -0.0052 Ry au,         -0.0131 Debye
        Dipole field         -0.0000 Ry au, 
 
        Potential amp.        0.0002 Ry
        Total length         28.3431 bohr
 

     total cpu time spent up to now is       40.3 secs

     total energy              =     -34.66642518 Ry
     estimated scf accuracy    <       0.00370688 Ry

     iteration #  4     ecut=    60.00 Ry     beta= 0.70
     Davidson diagonalization with overlap
     ethr =  4.63E-05,  avg # of iterations =  8.0

     negative rho (up, down):  2.371E-03 0.000E+00
 
     Adding external electric field

     Computed dipole along edir(2) : 
        Dipole               -0.0046 Ry au,         -0.0117 Debye
        Dipole field         -0.0000 Ry au, 
 
        Potential amp.        0.0001 Ry
        Total length         28.3431 bohr
 

     total cpu time spent up to now is       51.3 secs

     total energy              =     -34.66743600 Ry
     estimated scf accuracy    <       0.00177342 Ry

     iteration #  5     ecut=    60.00 Ry     beta= 0.70
     Davidson diagonalization with overlap
     ethr =  2.22E-05,  avg # of iterations =  1.0

     negative rho (up, down):  2.412E-03 0.000E+00
 
     Adding external electric field

     Computed dipole along edir(2) : 
        Dipole               -0.0042 Ry au,         -0.0106 Debye
        Dipole field         -0.0000 Ry au, 
 
        Potential amp.        0.0001 Ry
        Total length         28.3431 bohr
 

     total cpu time spent up to now is       61.0 secs

     total energy              =     -34.66728289 Ry
     estimated scf accuracy    <       0.00035912 Ry

     iteration #  6     ecut=    60.00 Ry     beta= 0.70
     Davidson diagonalization with overlap
     ethr =  4.49E-06,  avg # of iterations = 15.0

     negative rho (up, down):  2.408E-03 0.000E+00
 
     Adding external electric field

     Computed dipole along edir(2) : 
        Dipole               -0.0044 Ry au,         -0.0113 Debye
        Dipole field         -0.0000 Ry au, 
 
        Potential amp.        0.0001 Ry
        Total length         28.3431 bohr
 

     total cpu time spent up to now is       72.1 secs

     total energy              =     -34.66740462 Ry
     estimated scf accuracy    <       0.00013090 Ry

     iteration #  7     ecut=    60.00 Ry     beta= 0.70
     Davidson diagonalization with overlap
     ethr =  1.64E-06,  avg # of iterations =  4.0

     negative rho (up, down):  2.415E-03 0.000E+00
 
     Adding external electric field

     Computed dipole along edir(2) : 
        Dipole               -0.0044 Ry au,         -0.0113 Debye
        Dipole field         -0.0000 Ry au, 
 
        Potential amp.        0.0001 Ry
        Total length         28.3431 bohr
 

     total cpu time spent up to now is       82.1 secs

     total energy              =     -34.66742593 Ry
     estimated scf accuracy    <       0.00000097 Ry

     iteration #  8     ecut=    60.00 Ry     beta= 0.70
     Davidson diagonalization with overlap
     ethr =  1.21E-08,  avg # of iterations =  2.0

     negative rho (up, down):  2.416E-03 0.000E+00
 
     Adding external electric field

     Computed dipole along edir(2) : 
        Dipole               -0.0045 Ry au,         -0.0114 Debye
        Dipole field         -0.0000 Ry au, 
 
        Potential amp.        0.0001 Ry
        Total length         28.3431 bohr
 

     total cpu time spent up to now is       91.3 secs

     End of self-consistent calculation

          k = 0.0000 0.0000 0.0000 (178925 PWs)   bands (ev):

   -25.1836 -12.9552  -9.3311  -7.2002  -0.9799  -0.1046   0.2546   0.3792

     the Fermi energy is    -5.3312 ev

!    total energy              =     -34.66742621 Ry
     estimated scf accuracy    <       0.00000004 Ry
     smearing contrib. (-TS)   =      -0.00000000 Ry
     internal energy E=F+TS    =     -34.66742621 Ry

     The total energy is F=E-TS. E is the sum of the following terms:
     one-electron contribution =     -69.53639014 Ry
     hartree contribution      =      36.24372325 Ry
     xc contribution           =      -8.68529122 Ry
     ewald contribution        =       7.31053189 Ry
     electric field correction =       0.00000001 Ry

     convergence has been achieved in   8 iterations

     negative rho (up, down):  2.416E-03 0.000E+00

     Forces acting on atoms (cartesian axes, Ry/au):

     atom    1 type  1   force =    -0.00000049   -0.01284513    0.00805987
     atom    2 type  2   force =     0.00000138    0.01399696   -0.00913678
     atom    3 type  2   force =    -0.00000089   -0.00115183    0.00107691
     The non-local contrib.  to forces
     atom    1 type  1   force =    -0.00000313   -0.00261263   -2.17981122
     atom    2 type  2   force =     0.00000035   -0.19878133    0.14672311
     atom    3 type  2   force =    -0.00000052    0.19513092    0.14189835
     The ionic contribution  to forces
     atom    1 type  1   force =    -0.00000000   -0.03060960    4.37511727
     atom    2 type  2   force =     0.00000000    3.01806726   -2.21396016
     atom    3 type  2   force =    -0.00000000   -2.98745767   -2.16115711
     The local contribution  to forces
     atom    1 type  1   force =     0.00000527    0.02026468   -2.19928829
     atom    2 type  2   force =     0.00000132   -2.80528780    2.05804890
     atom    3 type  2   force =    -0.00000133    2.79116512    2.02028309
     The core correction contribution to forces
     atom    1 type  1   force =     0.00000005    0.00012220    0.01150490
     atom    2 type  2   force =     0.00000000    0.00000000    0.00000000
     atom    3 type  2   force =     0.00000000    0.00000000    0.00000000
     The Hubbard contrib.    to forces
     atom    1 type  1   force =     0.00000000    0.00000000    0.00000000
     atom    2 type  2   force =     0.00000000    0.00000000    0.00000000
     atom    3 type  2   force =     0.00000000    0.00000000    0.00000000
     The SCF correction term to forces
     atom    1 type  1   force =    -0.00000317   -0.00003999    0.00051487
     atom    2 type  2   force =    -0.00000077   -0.00000672    0.00002902
     atom    3 type  2   force =     0.00000047    0.00000426    0.00003024

     Total force =     0.022624     Total SCF correction =     0.000518

     Writing all to output data dir tmpdir/pwscf.save/
 
     init_run     :      6.92s CPU      8.35s WALL (       1 calls)
     electrons    :     69.68s CPU     83.07s WALL (       1 calls)
     forces       :      3.81s CPU      4.76s WALL (       1 calls)

     Called by init_run:
     wfcinit      :      0.48s CPU      0.51s WALL (       1 calls)
     potinit      :      1.91s CPU      2.25s WALL (       1 calls)
     hinit0       :      0.49s CPU      0.58s WALL (       1 calls)

     Called by electrons:
     c_bands      :     12.38s CPU     13.26s WALL (       8 calls)
     sum_band     :     27.54s CPU     32.01s WALL (       8 calls)
     v_of_rho     :     12.23s CPU     14.60s WALL (       9 calls)
     newd         :     16.18s CPU     22.36s WALL (       9 calls)
     mix_rho      :      3.21s CPU      3.55s WALL (       8 calls)

     Called by c_bands:
     init_us_2    :      0.18s CPU      0.18s WALL (      17 calls)
     init_us_2:cp :      0.18s CPU      0.18s WALL (      17 calls)
     cegterg      :     12.07s CPU     12.95s WALL (       8 calls)

     Called by *egterg:
     cdiaghg      :      0.01s CPU      0.01s WALL (      50 calls)
     h_psi        :     11.11s CPU     11.98s WALL (      51 calls)
     s_psi        :      0.16s CPU      0.16s WALL (      51 calls)
     g_psi        :      0.03s CPU      0.03s WALL (      42 calls)

     Called by h_psi:
     h_psi:calbec :      0.16s CPU      0.18s WALL (      51 calls)
     vloc_psi     :     10.71s CPU     11.56s WALL (      51 calls)
     add_vuspsi   :      0.18s CPU      0.18s WALL (      51 calls)

     General routines
     calbec       :      0.22s CPU      0.23s WALL (      63 calls)
     fft          :     11.11s CPU     14.13s WALL (     126 calls)
     ffts         :      0.57s CPU      0.68s WALL (      17 calls)
     fftw         :      8.60s CPU      9.48s WALL (     516 calls)
     interpolate  :      1.19s CPU      1.45s WALL (       9 calls)
 
     Parallel routines
 
     PWSCF        :   1m20.54s CPU   1m36.48s WALL

 
   This run was terminated on:  17:16:37   8Nov2023            

=------------------------------------------------------------------------------=
   JOB DONE.
=------------------------------------------------------------------------------=
