
     Program PWSCF v.7.2 starts on  8Nov2023 at 16:56: 6 

     This program is part of the open-source Quantum ESPRESSO suite
     for quantum simulation of materials; please cite
         "P. Giannozzi et al., J. Phys.:Condens. Matter 21 395502 (2009);
         "P. Giannozzi et al., J. Phys.:Condens. Matter 29 465901 (2017);
         "P. Giannozzi et al., J. Chem. Phys. 152 154105 (2020);
          URL http://www.quantum-espresso.org", 
     in publications or presentations arising from this work. More details at
     http://www.quantum-espresso.org/quote

     Parallel version (MPI), running on     4 processors

     MPI processes distributed on     1 nodes
     9318 MiB available memory on the printing compute node when the environment starts
 
     Reading input from espresso.pwi
Warning: card &CELL ignored
Warning: card / ignored

     Current dimensions of program PWSCF are:
     Max number of different atomic species (ntypx) = 10
     Max number of k-points (npk) =  40000
     Max angular momentum in pseudopotentials (lmaxx) =  4
     Presently no symmetry can be used with electric field

 
     R & G space division:  proc/nbgrp/npool/nimage =       4
     Subspace diagonalization in iterative solution of the eigenvalue problem:
     a serial algorithm will be used

 
     Parallelization info
     --------------------
     sticks:   dense  smooth     PW     G-vecs:    dense   smooth      PW
     Min        7666    3832    958              1011072   357408   44730
     Max        7670    3833    959              1011073   357411   44733
     Sum       30669   15329   3833              4044289  1429635  178925
 
     Using Slab Decomposition
 


     bravais-lattice index     =            0
     lattice parameter (alat)  =      28.3459  a.u.
     unit-cell volume          =   22775.6289 (a.u.)^3
     number of atoms/cell      =            3
     number of atomic types    =            2
     number of electrons       =         8.00
     number of Kohn-Sham states=            8
     kinetic-energy cutoff     =      60.0000  Ry
     charge density cutoff     =     480.0000  Ry
     scf convergence threshold =      1.0E-07
     mixing beta               =       0.7000
     number of iterations used =            8  plain     mixing
     Exchange-correlation=  SLA  PW   PBX  PBC
                           (   1   4   3   4   0   0   0)

     celldm(1)=  28.345892  celldm(2)=   0.000000  celldm(3)=   0.000000
     celldm(4)=   0.000000  celldm(5)=   0.000000  celldm(6)=   0.000000

     crystal axes: (cart. coord. in units of alat)
               a(1) = (   1.000000   0.000000   0.000000 )  
               a(2) = (   0.000000   1.000000   0.000000 )  
               a(3) = (   0.000000   0.000000   1.000000 )  

     reciprocal axes: (cart. coord. in units 2 pi/alat)
               b(1) = (  1.000000  0.000000  0.000000 )  
               b(2) = (  0.000000  1.000000  0.000000 )  
               b(3) = (  0.000000  0.000000  1.000000 )  


     PseudoPot. # 1 for O  read from file:
     /home/krojas/github_files/MatSciToolKit/tutorial/example_ase_ir_2/ir_1/o_pbe_v1.2.uspp.F.UPF
     MD5 check sum: 734c27235a0248c51dbae37a1fbe46ec
     Pseudo is Ultrasoft + core correction, Zval =  6.0
     Generated by new atomic code, or converted to UPF format
     Using radial grid of  737 points,  5 beta functions with: 
                l(1) =   0
                l(2) =   0
                l(3) =   1
                l(4) =   1
                l(5) =   2
     Q(r) pseudized with  8 coefficients,  rinner =    0.900   0.900   0.900
                                                       0.900   0.900

     PseudoPot. # 2 for H  read from file:
     /home/krojas/github_files/MatSciToolKit/tutorial/example_ase_ir_2/ir_1/h_pbe_v1.4.uspp.F.UPF
     MD5 check sum: 761ae9a214b05c3daf00ab9f6b793d6f
     Pseudo is Ultrasoft, Zval =  1.0
     Generated by new atomic code, or converted to UPF format
     Using radial grid of  615 points,  2 beta functions with: 
                l(1) =   0
                l(2) =   0
     Q(r) pseudized with  8 coefficients,  rinner =    0.700

     atomic species   valence    mass     pseudopotential
        O              6.00    15.99900     O ( 1.00)
        H              1.00     1.00800     H ( 1.00)

     No symmetry found



   Cartesian axes

     site n.     atom                  positions (alat units)
         1           O   tau(   1) = (   0.5000000   0.5000000   0.5195138  )
         2           H   tau(   2) = (   0.5000000   0.5513479   0.4798196  )
         3           H   tau(   3) = (   0.5000000   0.4486521   0.4798196  )

     number of k points=     1  Gaussian smearing, width (Ry)=  0.0100
                       cart. coord. in units 2pi/alat
        k(    1) = (   0.0000000   0.0000000   0.0000000), wk =   2.0000000

     Dense  grid:  4044289 G-vectors     FFT dimensions: ( 200, 200, 200)

     Smooth grid:  1429635 G-vectors     FFT dimensions: ( 144, 144, 144)

     Estimated max dynamical RAM per process >       2.25 GB

     Estimated total dynamical RAM >       9.02 GB

     Initial potential from superposition of free atoms

     starting charge       8.0000, renormalised to       8.0000

     negative rho (up, down):  5.072E-04 0.000E+00
 
     Adding external electric field

     Computed dipole along edir(3) : 
        Dipole               -0.0000 Ry au,         -0.0000 Debye
        Dipole field         -0.0000 Ry au, 
 
        Potential amp.        0.0000 Ry
        Total length         28.3431 bohr
 
     Starting wfcs are    6 randomized atomic wfcs +    2 random wfcs

     total cpu time spent up to now is        8.0 secs

     per-process dynamical memory:   489.0 Mb

     Self-consistent Calculation

     iteration #  1     ecut=    60.00 Ry     beta= 0.70
     Davidson diagonalization with overlap
     ethr =  1.00E-02,  avg # of iterations =  8.0

     negative rho (up, down):  1.831E-03 0.000E+00
 
     Adding external electric field

     Computed dipole along edir(3) : 
        Dipole               -0.7864 Ry au,         -1.9988 Debye
        Dipole field         -0.0004 Ry au, 
 
        Potential amp.        0.0246 Ry
        Total length         28.3431 bohr
 

     total cpu time spent up to now is       18.8 secs

     total energy              =     -34.47193767 Ry
     estimated scf accuracy    <       0.46233195 Ry

     iteration #  2     ecut=    60.00 Ry     beta= 0.70
     Davidson diagonalization with overlap
     ethr =  5.78E-03,  avg # of iterations =  2.0

     negative rho (up, down):  2.098E-03 0.000E+00
 
     Adding external electric field

     Computed dipole along edir(3) : 
        Dipole               -0.5774 Ry au,         -1.4677 Debye
        Dipole field         -0.0003 Ry au, 
 
        Potential amp.        0.0181 Ry
        Total length         28.3431 bohr
 

     total cpu time spent up to now is       28.3 secs

     total energy              =     -34.58700510 Ry
     estimated scf accuracy    <       0.44655248 Ry

     iteration #  3     ecut=    60.00 Ry     beta= 0.70
     Davidson diagonalization with overlap
     ethr =  5.58E-03,  avg # of iterations =  2.0

     negative rho (up, down):  2.383E-03 0.000E+00
 
     Adding external electric field

     Computed dipole along edir(3) : 
        Dipole               -0.6990 Ry au,         -1.7766 Debye
        Dipole field         -0.0004 Ry au, 
 
        Potential amp.        0.0219 Ry
        Total length         28.3431 bohr
 

     total cpu time spent up to now is       37.7 secs

     total energy              =     -34.66612357 Ry
     estimated scf accuracy    <       0.00372271 Ry

     iteration #  4     ecut=    60.00 Ry     beta= 0.70
     Davidson diagonalization with overlap
     ethr =  4.65E-05,  avg # of iterations =  8.0

     negative rho (up, down):  2.377E-03 0.000E+00
 
     Adding external electric field

     Computed dipole along edir(3) : 
        Dipole               -0.6973 Ry au,         -1.7724 Debye
        Dipole field         -0.0004 Ry au, 
 
        Potential amp.        0.0218 Ry
        Total length         28.3431 bohr
 

     total cpu time spent up to now is       48.7 secs

     total energy              =     -34.66712964 Ry
     estimated scf accuracy    <       0.00175374 Ry

     iteration #  5     ecut=    60.00 Ry     beta= 0.70
     Davidson diagonalization with overlap
     ethr =  2.19E-05,  avg # of iterations =  1.0

     negative rho (up, down):  2.418E-03 0.000E+00
 
     Adding external electric field

     Computed dipole along edir(3) : 
        Dipole               -0.7108 Ry au,         -1.8067 Debye
        Dipole field         -0.0004 Ry au, 
 
        Potential amp.        0.0222 Ry
        Total length         28.3431 bohr
 

     total cpu time spent up to now is       58.0 secs

     total energy              =     -34.66698378 Ry
     estimated scf accuracy    <       0.00035021 Ry

     iteration #  6     ecut=    60.00 Ry     beta= 0.70
     Davidson diagonalization with overlap
     ethr =  4.38E-06,  avg # of iterations = 16.0

     negative rho (up, down):  2.415E-03 0.000E+00
 
     Adding external electric field

     Computed dipole along edir(3) : 
        Dipole               -0.7036 Ry au,         -1.7883 Debye
        Dipole field         -0.0004 Ry au, 
 
        Potential amp.        0.0220 Ry
        Total length         28.3431 bohr
 

     total cpu time spent up to now is       69.0 secs

     total energy              =     -34.66710227 Ry
     estimated scf accuracy    <       0.00011873 Ry

     iteration #  7     ecut=    60.00 Ry     beta= 0.70
     Davidson diagonalization with overlap
     ethr =  1.48E-06,  avg # of iterations =  5.0

     negative rho (up, down):  2.422E-03 0.000E+00
 
     Adding external electric field

     Computed dipole along edir(3) : 
        Dipole               -0.7031 Ry au,         -1.7872 Debye
        Dipole field         -0.0004 Ry au, 
 
        Potential amp.        0.0220 Ry
        Total length         28.3431 bohr
 

     total cpu time spent up to now is       79.0 secs

     total energy              =     -34.66712147 Ry
     estimated scf accuracy    <       0.00000088 Ry

     iteration #  8     ecut=    60.00 Ry     beta= 0.70
     Davidson diagonalization with overlap
     ethr =  1.09E-08,  avg # of iterations =  2.0

     negative rho (up, down):  2.423E-03 0.000E+00
 
     Adding external electric field

     Computed dipole along edir(3) : 
        Dipole               -0.7030 Ry au,         -1.7869 Debye
        Dipole field         -0.0004 Ry au, 
 
        Potential amp.        0.0220 Ry
        Total length         28.3431 bohr
 

     total cpu time spent up to now is       89.0 secs

     total energy              =     -34.66712160 Ry
     estimated scf accuracy    <       0.00000017 Ry

     iteration #  9     ecut=    60.00 Ry     beta= 0.70
     Davidson diagonalization with overlap
     ethr =  2.13E-09,  avg # of iterations =  2.0

     negative rho (up, down):  2.423E-03 0.000E+00
 
     Adding external electric field

     Computed dipole along edir(3) : 
        Dipole               -0.7030 Ry au,         -1.7869 Debye
        Dipole field         -0.0004 Ry au, 
 
        Potential amp.        0.0220 Ry
        Total length         28.3431 bohr
 

     total cpu time spent up to now is       98.0 secs

     End of self-consistent calculation

          k = 0.0000 0.0000 0.0000 (178925 PWs)   bands (ev):

   -25.1839 -13.0364  -9.2670  -7.1967  -0.9849  -0.1131   0.2373   0.3602

     the Fermi energy is    -5.3455 ev

!    total energy              =     -34.66712162 Ry
     estimated scf accuracy    <          8.2E-09 Ry
     smearing contrib. (-TS)   =      -0.00000000 Ry
     internal energy E=F+TS    =     -34.66712162 Ry

     The total energy is F=E-TS. E is the sum of the following terms:
     one-electron contribution =     -69.57972961 Ry
     hartree contribution      =      36.26577376 Ry
     xc contribution           =      -8.68903023 Ry
     ewald contribution        =       7.33559178 Ry
     electric field correction =       0.00027269 Ry

     convergence has been achieved in   9 iterations

     negative rho (up, down):  2.423E-03 0.000E+00

     Forces acting on atoms (cartesian axes, Ry/au):

     atom    1 type  1   force =     0.00000117   -0.00000018    0.01686608
     atom    2 type  2   force =     0.00000014    0.00800712   -0.00843354
     atom    3 type  2   force =    -0.00000132   -0.00800695   -0.00843254
     The non-local contrib.  to forces
     atom    1 type  1   force =     0.00000285   -0.00000412   -2.16908810
     atom    2 type  2   force =    -0.00000002   -0.20033469    0.14255195
     atom    3 type  2   force =    -0.00000045    0.20033443    0.14255197
     The ionic contribution  to forces
     atom    1 type  1   force =     0.00000000    0.00000000    4.33206021
     atom    2 type  2   force =     0.00000000    3.03683548   -2.16603011
     atom    3 type  2   force =    -0.00000000   -3.03683548   -2.16603011
     The local contribution  to forces
     atom    1 type  1   force =     0.00000613    0.00000054   -2.16243461
     atom    2 type  2   force =     0.00000043   -2.82849186    2.01424896
     atom    3 type  2   force =    -0.00000087    2.82849109    2.01424930
     The core correction contribution to forces
     atom    1 type  1   force =    -0.00000001    0.00000004    0.01146556
     atom    2 type  2   force =     0.00000000    0.00000000    0.00000000
     atom    3 type  2   force =     0.00000000    0.00000000    0.00000000
     The Hubbard contrib.    to forces
     atom    1 type  1   force =     0.00000000    0.00000000    0.00000000
     atom    2 type  2   force =     0.00000000    0.00000000    0.00000000
     atom    3 type  2   force =     0.00000000    0.00000000    0.00000000
     The SCF correction term to forces
     atom    1 type  1   force =    -0.00000817    0.00000332    0.00019864
     atom    2 type  2   force =    -0.00000064   -0.00000185    0.00001014
     atom    3 type  2   force =    -0.00000037    0.00000298    0.00001079

     Total force =     0.023557     Total SCF correction =     0.000199

     Writing all to output data dir tmpdir/pwscf.save/
 
     init_run     :      6.63s CPU      7.96s WALL (       1 calls)
     electrons    :     75.69s CPU     90.09s WALL (       1 calls)
     forces       :      3.98s CPU      4.87s WALL (       1 calls)

     Called by init_run:
     wfcinit      :      0.43s CPU      0.47s WALL (       1 calls)
     potinit      :      1.81s CPU      2.13s WALL (       1 calls)
     hinit0       :      0.47s CPU      0.57s WALL (       1 calls)

     Called by electrons:
     c_bands      :     12.99s CPU     14.12s WALL (       9 calls)
     sum_band     :     29.41s CPU     34.13s WALL (       9 calls)
     v_of_rho     :     13.16s CPU     15.62s WALL (      10 calls)
     newd         :     17.98s CPU     24.49s WALL (      10 calls)
     mix_rho      :      3.71s CPU      4.01s WALL (       9 calls)

     Called by c_bands:
     init_us_2    :      0.17s CPU      0.18s WALL (      19 calls)
     init_us_2:cp :      0.17s CPU      0.18s WALL (      19 calls)
     cegterg      :     12.64s CPU     13.76s WALL (       9 calls)

     Called by *egterg:
     cdiaghg      :      0.01s CPU      0.01s WALL (      55 calls)
     h_psi        :     11.54s CPU     12.67s WALL (      56 calls)
     s_psi        :      0.17s CPU      0.17s WALL (      56 calls)
     g_psi        :      0.04s CPU      0.04s WALL (      46 calls)

     Called by h_psi:
     h_psi:calbec :      0.20s CPU      0.21s WALL (      56 calls)
     vloc_psi     :     11.10s CPU     12.21s WALL (      56 calls)
     add_vuspsi   :      0.19s CPU      0.20s WALL (      56 calls)

     General routines
     calbec       :      0.24s CPU      0.26s WALL (      69 calls)
     fft          :     11.95s CPU     15.10s WALL (     139 calls)
     ffts         :      0.65s CPU      0.78s WALL (      19 calls)
     fftw         :      8.60s CPU      9.80s WALL (     566 calls)
     interpolate  :      1.32s CPU      1.61s WALL (      10 calls)
 
     Parallel routines
 
     PWSCF        :   1m26.46s CPU   1m43.18s WALL

 
   This run was terminated on:  16:57:49   8Nov2023            

=------------------------------------------------------------------------------=
   JOB DONE.
=------------------------------------------------------------------------------=
