
     Program PWSCF v.7.2 starts on  1Dec2023 at 10:18:48 

     This program is part of the open-source Quantum ESPRESSO suite
     for quantum simulation of materials; please cite
         "P. Giannozzi et al., J. Phys.:Condens. Matter 21 395502 (2009);
         "P. Giannozzi et al., J. Phys.:Condens. Matter 29 465901 (2017);
         "P. Giannozzi et al., J. Chem. Phys. 152 154105 (2020);
          URL http://www.quantum-espresso.org", 
     in publications or presentations arising from this work. More details at
     http://www.quantum-espresso.org/quote

     Parallel version (MPI), running on     4 processors

     MPI processes distributed on     1 nodes
     12539 MiB available memory on the printing compute node when the environment starts
 
     Reading input from espresso.pwi
Warning: card &CELL ignored
Warning: card / ignored

     Current dimensions of program PWSCF are:
     Max number of different atomic species (ntypx) = 10
     Max number of k-points (npk) =  40000
     Max angular momentum in pseudopotentials (lmaxx) =  4

     IMPORTANT: XC functional enforced from input :
     Exchange-correlation= VDW-DF2-B86R
                           (   1   4  26   0   2   0   0)
     Any further DFT definition will be discarded
     Please, verify this is what you really want

     Message from routine setup:
     using ibrav=0 with symmetry is DISCOURAGED, use correct ibrav instead
 
     R & G space division:  proc/nbgrp/npool/nimage =       4
     Subspace diagonalization in iterative solution of the eigenvalue problem:
     a serial algorithm will be used

 
     Parallelization info
     --------------------
     sticks:   dense  smooth     PW     G-vecs:    dense   smooth      PW
     Min         271     137     41                28481    10067    1796
     Max         272     139     44                28485    10069    1803
     Sum        1085     551    167               113933    40273    7201
 
     Using Slab Decomposition
 


     bravais-lattice index     =            0
     lattice parameter (alat)  =       5.6973  a.u.
     unit-cell volume          =     642.1518 (a.u.)^3
     number of atoms/cell      =            4
     number of atomic types    =            2
     number of electrons       =         8.00
     number of Kohn-Sham states=            8
     kinetic-energy cutoff     =      60.0000  Ry
     charge density cutoff     =     480.0000  Ry
     scf convergence threshold =      1.0E-09
     mixing beta               =       0.7000
     number of iterations used =            8  plain     mixing
     Exchange-correlation= VDW-DF2-B86R
                           (   1   4  26   0   2   0   0)

     celldm(1)=   5.697334  celldm(2)=   0.000000  celldm(3)=   0.000000
     celldm(4)=   0.000000  celldm(5)=   0.000000  celldm(6)=   0.000000

     crystal axes: (cart. coord. in units of alat)
               a(1) = (   0.999994  -0.003591   0.000000 )  
               a(2) = (   0.503167   0.875437   0.000000 )  
               a(3) = (   0.000000   0.000000   3.958265 )  

     reciprocal axes: (cart. coord. in units 2 pi/alat)
               b(1) = (  0.997946 -0.573581  0.000000 )  
               b(2) = (  0.004094  1.139933  0.000000 )  
               b(3) = (  0.000000  0.000000  0.252636 )  


     PseudoPot. # 1 for B  read from file:
     /home/krojas/github_files/MatSciToolKit/tutorial/example_ase_vib_1/b_pbe_v1.4.uspp.F.UPF
     MD5 check sum: cc6de2960df11db49a60e589f9ebb39b
     Pseudo is Ultrasoft + core correction, Zval =  3.0
     Generated by new atomic code, or converted to UPF format
     Using radial grid of  781 points,  4 beta functions with: 
                l(1) =   0
                l(2) =   0
                l(3) =   1
                l(4) =   1
     Q(r) pseudized with  8 coefficients,  rinner =    1.100   1.100   1.100


     PseudoPot. # 2 for H  read from file:
     /home/krojas/github_files/MatSciToolKit/tutorial/example_ase_vib_1/h_pbe_v1.4.uspp.F.UPF
     MD5 check sum: 761ae9a214b05c3daf00ab9f6b793d6f
     Pseudo is Ultrasoft, Zval =  1.0
     Generated by new atomic code, or converted to UPF format
     Using radial grid of  615 points,  2 beta functions with: 
                l(1) =   0
                l(2) =   0
     Q(r) pseudized with  8 coefficients,  rinner =    0.700

     atomic species   valence    mass     pseudopotential
        B              3.00    10.81000     B ( 1.00)
        H              1.00     1.00800     H ( 1.00)

      2 Sym. Ops. (no inversion) found



   Cartesian axes

     site n.     atom                  positions (alat units)
         1           B   tau(   1) = (   0.0033169   0.0000000   1.9791325  )
         2           B   tau(   2) = (   0.5009657   0.2715580   1.9791325  )
         3           H   tau(   3) = (   0.5020846   0.5735104   2.2998349  )
         4           H   tau(   4) = (   0.5020846   0.5735104   1.6584302  )

     number of k points=    74  Gaussian smearing, width (Ry)=  0.0100
                       cart. coord. in units 2pi/alat
        k(    1) = (   0.0000000   0.0000000   0.0000000), wk =   0.0138889
        k(    2) = (   0.0003412   0.0949944   0.0000000), wk =   0.0277778
        k(    3) = (   0.0006823   0.1899889   0.0000000), wk =   0.0277778
        k(    4) = (   0.0010235   0.2849833   0.0000000), wk =   0.0277778
        k(    5) = (   0.0013646   0.3799777   0.0000000), wk =   0.0277778
        k(    6) = (   0.0017058   0.4749722   0.0000000), wk =   0.0277778
        k(    7) = (  -0.0020470  -0.5699666   0.0000000), wk =   0.0138889
        k(    8) = (   0.0831622  -0.0477984   0.0000000), wk =   0.0277778
        k(    9) = (   0.0835034   0.0471960   0.0000000), wk =   0.0277778
        k(   10) = (   0.0838445   0.1421905   0.0000000), wk =   0.0277778
        k(   11) = (   0.0841857   0.2371849   0.0000000), wk =   0.0277778
        k(   12) = (   0.0845269   0.3321793   0.0000000), wk =   0.0277778
        k(   13) = (   0.0848680   0.4271738   0.0000000), wk =   0.0277778
        k(   14) = (   0.0811152  -0.6177650   0.0000000), wk =   0.0277778
        k(   15) = (   0.0814564  -0.5227706   0.0000000), wk =   0.0277778
        k(   16) = (   0.0817976  -0.4277762   0.0000000), wk =   0.0277778
        k(   17) = (   0.0821387  -0.3327817   0.0000000), wk =   0.0277778
        k(   18) = (   0.0824799  -0.2377873   0.0000000), wk =   0.0277778
        k(   19) = (   0.0828210  -0.1427928   0.0000000), wk =   0.0277778
        k(   20) = (   0.1663244  -0.0955968   0.0000000), wk =   0.0277778
        k(   21) = (   0.1666656  -0.0006024   0.0000000), wk =   0.0277778
        k(   22) = (   0.1670067   0.0943921   0.0000000), wk =   0.0277778
        k(   23) = (   0.1673479   0.1893865   0.0000000), wk =   0.0277778
        k(   24) = (   0.1676891   0.2843809   0.0000000), wk =   0.0277778
        k(   25) = (   0.1680302   0.3793754   0.0000000), wk =   0.0277778
        k(   26) = (   0.1642774  -0.6655634   0.0000000), wk =   0.0277778
        k(   27) = (   0.1646186  -0.5705690   0.0000000), wk =   0.0277778
        k(   28) = (   0.1649598  -0.4755746   0.0000000), wk =   0.0277778
        k(   29) = (   0.1653009  -0.3805801   0.0000000), wk =   0.0277778
        k(   30) = (   0.1656421  -0.2855857   0.0000000), wk =   0.0277778
        k(   31) = (   0.1659833  -0.1905913   0.0000000), wk =   0.0277778
        k(   32) = (   0.2494866  -0.1433952   0.0000000), wk =   0.0277778
        k(   33) = (   0.2498278  -0.0484008   0.0000000), wk =   0.0277778
        k(   34) = (   0.2501689   0.0465936   0.0000000), wk =   0.0277778
        k(   35) = (   0.2505101   0.1415881   0.0000000), wk =   0.0277778
        k(   36) = (   0.2508513   0.2365825   0.0000000), wk =   0.0277778
        k(   37) = (   0.2511924   0.3315769   0.0000000), wk =   0.0277778
        k(   38) = (   0.2474397  -0.7133618   0.0000000), wk =   0.0277778
        k(   39) = (   0.2477808  -0.6183674   0.0000000), wk =   0.0277778
        k(   40) = (   0.2481220  -0.5233730   0.0000000), wk =   0.0277778
        k(   41) = (   0.2484631  -0.4283785   0.0000000), wk =   0.0277778
        k(   42) = (   0.2488043  -0.3333841   0.0000000), wk =   0.0277778
        k(   43) = (   0.2491455  -0.2383897   0.0000000), wk =   0.0277778
        k(   44) = (   0.3326488  -0.1911936   0.0000000), wk =   0.0277778
        k(   45) = (   0.3329900  -0.0961992   0.0000000), wk =   0.0277778
        k(   46) = (   0.3333312  -0.0012048   0.0000000), wk =   0.0277778
        k(   47) = (   0.3336723   0.0937897   0.0000000), wk =   0.0277778
        k(   48) = (   0.3340135   0.1887841   0.0000000), wk =   0.0277778
        k(   49) = (   0.3343546   0.2837785   0.0000000), wk =   0.0277778
        k(   50) = (   0.3306019  -0.7611603   0.0000000), wk =   0.0277778
        k(   51) = (   0.3309430  -0.6661658   0.0000000), wk =   0.0277778
        k(   52) = (   0.3312842  -0.5711714   0.0000000), wk =   0.0277778
        k(   53) = (   0.3316253  -0.4761769   0.0000000), wk =   0.0277778
        k(   54) = (   0.3319665  -0.3811825   0.0000000), wk =   0.0277778
        k(   55) = (   0.3323077  -0.2861881   0.0000000), wk =   0.0277778
        k(   56) = (   0.4158110  -0.2389921   0.0000000), wk =   0.0277778
        k(   57) = (   0.4161522  -0.1439976   0.0000000), wk =   0.0277778
        k(   58) = (   0.4164934  -0.0490032   0.0000000), wk =   0.0277778
        k(   59) = (   0.4168345   0.0459913   0.0000000), wk =   0.0277778
        k(   60) = (   0.4171757   0.1409857   0.0000000), wk =   0.0277778
        k(   61) = (   0.4175169   0.2359801   0.0000000), wk =   0.0277778
        k(   62) = (   0.4137641  -0.8089587   0.0000000), wk =   0.0277778
        k(   63) = (   0.4141052  -0.7139642   0.0000000), wk =   0.0277778
        k(   64) = (   0.4144464  -0.6189698   0.0000000), wk =   0.0277778
        k(   65) = (   0.4147876  -0.5239754   0.0000000), wk =   0.0277778
        k(   66) = (   0.4151287  -0.4289809   0.0000000), wk =   0.0277778
        k(   67) = (   0.4154699  -0.3339865   0.0000000), wk =   0.0277778
        k(   68) = (  -0.4989732   0.2867905   0.0000000), wk =   0.0138889
        k(   69) = (  -0.4986321   0.3817849   0.0000000), wk =   0.0277778
        k(   70) = (  -0.4982909   0.4767793   0.0000000), wk =   0.0277778
        k(   71) = (  -0.4979498   0.5717738   0.0000000), wk =   0.0277778
        k(   72) = (  -0.4976086   0.6667682   0.0000000), wk =   0.0277778
        k(   73) = (  -0.4972674   0.7617626   0.0000000), wk =   0.0277778
        k(   74) = (  -0.5010202  -0.2831762   0.0000000), wk =   0.0138889

     Dense  grid:   113933 G-vectors     FFT dimensions: (  40,  45, 160)

     Smooth grid:    40273 G-vectors     FFT dimensions: (  30,  30, 120)

     Estimated max dynamical RAM per process >      51.09 MB

     Estimated total dynamical RAM >     204.35 MB

     Initial potential from superposition of free atoms

     starting charge       7.9994, renormalised to       8.0000

     negative rho (up, down):  1.264E-05 0.000E+00


     %%%%%%%%%%%%%%%%%%%%%%%%%%%%%%%%%%%%%%%%%%%%%%%%%%%%%%%%%%%%%%%%%%%%%%%%
     %                                                                      %
     % You are using vdW-DF, which was implemented by the Thonhauser group. %
     % Please cite the following two papers that made this development      %
     % possible and the two reviews that describe the various versions:     %
     %                                                                      %
     %   T. Thonhauser et al., PRL 115, 136402 (2015).                      %
     %   T. Thonhauser et al., PRB 76, 125112 (2007).                       %
     %   K. Berland et al., Rep. Prog. Phys. 78, 066501 (2015).             %
     %   D.C. Langreth et al., J. Phys.: Condens. Matter 21, 084203 (2009). %
     %                                                                      %
     % If you are calculating stress with vdW-DF, please also cite:         %
     %                                                                      %
     %   R. Sabatini et al., J. Phys.: Condens. Matter 24, 424209 (2012).   %
     %                                                                      %
     %%%%%%%%%%%%%%%%%%%%%%%%%%%%%%%%%%%%%%%%%%%%%%%%%%%%%%%%%%%%%%%%%%%%%%%%

     %%%%%%%%%%%%%%%%%%%%%%%%%%%%%%%%%%%%%%%%%%%%%%%%%%%%%%%%%%%%%%%%%%%%%%%%
     %                                                                      %
     %  vdW-DF NEWS:                                                        %
     %                                                                      %
     %  * vdW-DF3 is now available. DOI: 10.1021/acs.jctc.0c00471           %
     %    use with input_dft = 'vdW-DF3-opt1' or 'vdW-DF3-opt2'             %
     %                                                                      %
     %  * Unscreened and range-separated hybrid vdW-DF-cx functionals       %
     %    DOI: 10.1063/1.4986522 and 10.1088/1361-648X/ac2ad2               %
     %    use with input_dft = 'vdW-DF-cx0'    and 'vdW-DF-ahcx'            %
     %  * Unscreened and range-separated hybrid vdW-DF2-b86r functionals    %
     %    DOI: 10.1063/1.4986522 and DOI: 10.1103/PhysRevX.12.041003        %
     %    use with input_dft = 'vdW-DF2-br0' and 'vdW-DF2-ahbr'             %
     %                                                                      %
     %%%%%%%%%%%%%%%%%%%%%%%%%%%%%%%%%%%%%%%%%%%%%%%%%%%%%%%%%%%%%%%%%%%%%%%%


     Starting wfcs are   10 randomized atomic wfcs

     total cpu time spent up to now is       27.0 secs

     per-process dynamical memory:   100.7 Mb

     Self-consistent Calculation

     iteration #  1     ecut=    60.00 Ry     beta= 0.70
     Davidson diagonalization with overlap
     ethr =  1.00E-02,  avg # of iterations =  3.9

     negative rho (up, down):  1.290E-05 0.000E+00

     total cpu time spent up to now is       30.2 secs

     total energy              =     -15.04535437 Ry
     estimated scf accuracy    <       0.32934827 Ry

     iteration #  2     ecut=    60.00 Ry     beta= 0.70
     Davidson diagonalization with overlap
     ethr =  4.12E-03,  avg # of iterations =  3.7

     negative rho (up, down):  2.185E-05 0.000E+00

     total cpu time spent up to now is       32.7 secs

     total energy              =     -15.10075283 Ry
     estimated scf accuracy    <       0.01905364 Ry

     iteration #  3     ecut=    60.00 Ry     beta= 0.70
     Davidson diagonalization with overlap
     ethr =  2.38E-04,  avg # of iterations =  5.0

     negative rho (up, down):  3.101E-05 0.000E+00

     total cpu time spent up to now is       35.5 secs

     total energy              =     -15.10411905 Ry
     estimated scf accuracy    <       0.00058950 Ry

     iteration #  4     ecut=    60.00 Ry     beta= 0.70
     Davidson diagonalization with overlap
     ethr =  7.37E-06,  avg # of iterations =  5.3

     negative rho (up, down):  3.286E-05 0.000E+00

     total cpu time spent up to now is       38.9 secs

     total energy              =     -15.10421148 Ry
     estimated scf accuracy    <       0.00000712 Ry

     iteration #  5     ecut=    60.00 Ry     beta= 0.70
     Davidson diagonalization with overlap
     ethr =  8.90E-08,  avg # of iterations =  3.2

     negative rho (up, down):  3.334E-05 0.000E+00

     total cpu time spent up to now is       41.5 secs

     total energy              =     -15.10421430 Ry
     estimated scf accuracy    <       0.00000041 Ry

     iteration #  6     ecut=    60.00 Ry     beta= 0.70
     Davidson diagonalization with overlap
     ethr =  5.17E-09,  avg # of iterations =  2.1

     negative rho (up, down):  3.347E-05 0.000E+00

     total cpu time spent up to now is       43.7 secs

     total energy              =     -15.10421438 Ry
     estimated scf accuracy    <       0.00000002 Ry

     iteration #  7     ecut=    60.00 Ry     beta= 0.70
     Davidson diagonalization with overlap
     ethr =  2.18E-10,  avg # of iterations =  2.5

     negative rho (up, down):  3.346E-05 0.000E+00

     total cpu time spent up to now is       46.1 secs

     End of self-consistent calculation

          k = 0.0000 0.0000 0.0000 (  5017 PWs)   bands (ev):

   -14.5319  -8.8545  -3.0993  -0.6465   0.5641   1.9362   2.9060   5.5905

          k = 0.0003 0.0950 0.0000 (  4979 PWs)   bands (ev):

   -14.4332  -8.7368  -3.4858  -0.8933   0.6868   2.0772   3.0338   5.6997

          k = 0.0007 0.1900 0.0000 (  4988 PWs)   bands (ev):

   -14.1422  -8.3890  -4.4736  -1.4597   1.0706   2.4823   3.4242   3.9681

          k = 0.0010 0.2850 0.0000 (  5020 PWs)   bands (ev):

   -13.6770  -7.8309  -5.7404  -2.0757   1.7182   1.9058   3.3006   4.0499

          k = 0.0014 0.3800 0.0000 (  5038 PWs)   bands (ev):

   -13.0838  -7.1137  -7.0189  -2.5822   0.1865   2.5849   4.2677   4.6371

          k = 0.0017 0.4750 0.0000 (  5038 PWs)   bands (ev):

   -12.4870  -8.0644  -6.3817  -2.9064  -1.1730   3.4611   4.9185   5.5264

          k =-0.0020-0.5700 0.0000 (  5036 PWs)   bands (ev):

   -12.1968  -8.5098  -6.0187  -3.0173  -1.7477   3.7903   5.6266   6.1147

          k = 0.0832-0.0478 0.0000 (  5007 PWs)   bands (ev):

   -14.4334  -8.7541  -3.3681  -1.0459   0.7000   2.0771   3.0478   5.6267

          k = 0.0835 0.0472 0.0000 (  5007 PWs)   bands (ev):

   -14.4334  -8.7534  -3.3849  -1.0214   0.6997   2.0774   3.0476   5.6996

          k = 0.0838 0.1422 0.0000 (  5003 PWs)   bands (ev):

   -14.2389  -8.5217  -4.0827  -1.4152   0.9530   2.3524   3.3086   4.8361

          k = 0.0842 0.2372 0.0000 (  5010 PWs)   bands (ev):

   -13.8607  -8.0710  -5.1771  -2.0580   1.4744   2.6168   3.1979   3.8355

          k = 0.0845 0.3322 0.0000 (  5029 PWs)   bands (ev):

   -13.3287  -7.4346  -6.4079  -2.6855   1.0139   2.2503   3.8484   4.5709

          k = 0.0849 0.4272 0.0000 (  5030 PWs)   bands (ev):

   -12.7191  -7.5526  -6.6999  -3.1477  -0.5099   3.2064   4.9593   5.1317

          k = 0.0811-0.6178 0.0000 (  5055 PWs)   bands (ev):

   -12.2353  -8.3221  -6.1100  -3.3890  -1.5026   4.0011   5.5537   6.2891

          k = 0.0815-0.5228 0.0000 (  5055 PWs)   bands (ev):

   -12.2356  -8.3192  -6.1125  -3.3926  -1.4969   3.9963   5.5630   6.2837

          k = 0.0818-0.4278 0.0000 (  5030 PWs)   bands (ev):

   -12.7193  -7.5435  -6.7046  -3.1598  -0.4957   3.2025   4.9558   5.1264

          k = 0.0821-0.3328 0.0000 (  5029 PWs)   bands (ev):

   -13.3287  -7.4389  -6.3907  -2.7089   1.0339   2.2487   3.8467   4.5656

          k = 0.0825-0.2378 0.0000 (  5010 PWs)   bands (ev):

   -13.8606  -8.0742  -5.1501  -2.0956   1.4740   2.6297   3.2096   3.8338

          k = 0.0828-0.1428 0.0000 (  5003 PWs)   bands (ev):

   -14.2388  -8.5236  -4.0505  -1.4613   0.9533   2.3517   3.3084   4.8662

          k = 0.1663-0.0956 0.0000 (  5007 PWs)   bands (ev):

   -14.1442  -8.4629  -4.1054  -1.9356   1.1138   2.4882   3.4763   5.3451

          k = 0.1667-0.0006 0.0000 (  4991 PWs)   bands (ev):

   -14.2397  -8.5730  -3.7762  -1.8081   0.9850   2.3574   3.3441   5.9803

          k = 0.1670 0.0944 0.0000 (  5007 PWs)   bands (ev):

   -14.1443  -8.4602  -4.1561  -1.8662   1.1132   2.4893   3.4758   5.2909

          k = 0.1673 0.1894 0.0000 (  5031 PWs)   bands (ev):

   -13.8636  -8.1313  -4.9752  -2.3152   1.5038   2.7890   3.6854   3.8750

          k = 0.1677 0.2844 0.0000 (  5037 PWs)   bands (ev):

   -13.4183  -7.6099  -5.9658  -3.0505   1.7566   2.1612   3.7408   4.5447

          k = 0.1680 0.3794 0.0000 (  5046 PWs)   bands (ev):

   -12.8591  -6.9863  -6.9555  -3.7347   0.2800   3.0585   4.6681   5.4201

          k = 0.1643-0.6656 0.0000 (  5071 PWs)   bands (ev):

   -12.3128  -7.8464  -6.3167  -4.1808  -0.8758   4.0857   5.7996   6.1207

          k = 0.1646-0.5706 0.0000 (  5067 PWs)   bands (ev):

   -12.0573  -8.2100  -6.0207  -4.3373  -1.3430   4.6965   6.5085   6.8297

          k = 0.1650-0.4756 0.0000 (  5071 PWs)   bands (ev):

   -12.3136  -7.8318  -6.3246  -4.1985  -0.8543   4.0797   5.7871   6.1253

          k = 0.1653-0.3806 0.0000 (  5048 PWs)   bands (ev):

   -12.8595  -6.9649  -6.9557  -3.7735   0.3160   3.0557   4.6619   5.4123

          k = 0.1656-0.2856 0.0000 (  5037 PWs)   bands (ev):

   -13.4183  -7.6178  -5.9179  -3.1132   1.8007   2.1602   3.7404   4.5407

          k = 0.1660-0.1906 0.0000 (  5031 PWs)   bands (ev):

   -13.8635  -8.1366  -4.9158  -2.3959   1.5041   2.7936   3.7335   3.8737

          k = 0.2495-0.1434 0.0000 (  5031 PWs)   bands (ev):

   -13.6872  -8.0161  -5.1688  -2.8249   1.8074   3.0024   4.0178   4.1873

          k = 0.2498-0.0484 0.0000 (  5026 PWs)   bands (ev):

   -13.8663  -8.2157  -4.5620  -2.8339   1.5450   2.8951   3.9240   5.1607

          k = 0.2502 0.0466 0.0000 (  5026 PWs)   bands (ev):

   -13.8663  -8.2136  -4.6022  -2.7833   1.5445   2.8962   3.9236   5.1110

          k = 0.2505 0.1416 0.0000 (  5031 PWs)   bands (ev):

   -13.6872  -8.0096  -5.2395  -2.7300   1.8064   2.9939   3.9548   4.1872

          k = 0.2509 0.2366 0.0000 (  5038 PWs)   bands (ev):

   -13.3439  -7.6217  -6.0054  -3.1977   2.1504   2.3294   3.9545   4.7115

          k = 0.2512 0.3316 0.0000 (  5053 PWs)   bands (ev):

   -12.8746  -7.0951  -6.7341  -4.0316   0.9282   3.1072   4.6957   5.5171

          k = 0.2474-0.7134 0.0000 (  5056 PWs)   bands (ev):

   -12.3659  -7.3669  -6.5300  -4.8129  -0.1174   4.0853   5.5663   6.4703

          k = 0.2478-0.6184 0.0000 (  5062 PWs)   bands (ev):

   -11.9967  -7.7821  -6.1266  -5.2633  -0.7586   5.0279   5.9225   6.9521

          k = 0.2481-0.5234 0.0000 (  5062 PWs)   bands (ev):

   -11.9976  -7.7661  -6.1329  -5.2811  -0.7408   5.0229   5.9052   6.9805

          k = 0.2485-0.4284 0.0000 (  5056 PWs)   bands (ev):

   -12.3673  -7.3227  -6.5435  -4.8644  -0.0713   4.0817   5.5439   6.4649

          k = 0.2488-0.3334 0.0000 (  5053 PWs)   bands (ev):

   -12.8754  -7.1087  -6.6714  -4.1095   0.9903   3.1058   4.6894   5.5079

          k = 0.2491-0.2384 0.0000 (  5038 PWs)   bands (ev):

   -13.3440  -7.6322  -5.9340  -3.2925   2.2129   2.3297   3.9618   4.7047

          k = 0.3326-0.1912 0.0000 (  5036 PWs)   bands (ev):

   -13.1183  -7.4896  -6.3385  -3.4799   2.2213   2.7658   4.4064   4.7338

          k = 0.3330-0.0962 0.0000 (  5043 PWs)   bands (ev):

   -13.3499  -7.7312  -5.6425  -3.6508   2.3760   3.1858   4.0772   4.7825

          k = 0.3333-0.0012 0.0000 (  5043 PWs)   bands (ev):

   -13.4303  -7.8133  -5.2368  -3.9214   2.2430   3.5427   4.1841   4.6483

          k = 0.3337 0.0938 0.0000 (  5043 PWs)   bands (ev):

   -13.3498  -7.7250  -5.7067  -3.5698   2.3748   3.1490   4.0445   4.7816

          k = 0.3340 0.1888 0.0000 (  5036 PWs)   bands (ev):

   -13.1178  -7.4774  -6.4097  -3.3827   2.1488   2.7643   4.3950   4.7861

          k = 0.3344 0.2838 0.0000 (  5056 PWs)   bands (ev):

   -12.7675  -7.1080  -6.9923  -3.8419   1.2059   3.3988   5.0460   5.1683

          k = 0.3306-0.7612 0.0000 (  5051 PWs)   bands (ev):

   -12.3678  -7.3444  -6.6903  -4.7378   0.4709   4.2448   5.7338   6.3566

          k = 0.3309-0.6662 0.0000 (  5056 PWs)   bands (ev):

   -12.0343  -7.4140  -6.3440  -5.6411   0.0012   5.1297   5.5166   7.1081

          k = 0.3313-0.5712 0.0000 (  5049 PWs)   bands (ev):

   -11.9025  -7.3180  -6.2105  -6.1024  -0.1477   5.2378   5.5461   7.5018

          k = 0.3316-0.4762 0.0000 (  5056 PWs)   bands (ev):

   -12.0364  -7.3561  -6.3567  -5.7043   0.0469   5.1251   5.4810   7.1315

          k = 0.3320-0.3812 0.0000 (  5051 PWs)   bands (ev):

   -12.3700  -7.2750  -6.7084  -4.8207   0.5441   4.2424   5.7054   6.2776

          k = 0.3323-0.2862 0.0000 (  5056 PWs)   bands (ev):

   -12.7689  -7.1249  -6.9212  -3.9356   1.2867   3.3987   5.0455   5.1043

          k = 0.4158-0.2390 0.0000 (  5035 PWs)   bands (ev):

   -12.5725  -7.3097  -7.0276  -3.8681   1.2484   3.9311   4.5431   5.6292

          k = 0.4162-0.1440 0.0000 (  5059 PWs)   bands (ev):

   -12.7774  -7.2179  -6.7512  -4.1431   1.9658   3.4494   4.9655   5.1646

          k = 0.4165-0.0490 0.0000 (  5060 PWs)   bands (ev):

   -12.8949  -7.3242  -6.0715  -4.7901   2.7671   3.1933   4.3808   5.6367

          k = 0.4168 0.0460 0.0000 (  5060 PWs)   bands (ev):

   -12.8946  -7.3199  -6.1225  -4.7322   2.7256   3.1926   4.3865   5.6360

          k = 0.4172 0.1410 0.0000 (  5059 PWs)   bands (ev):

   -12.7764  -7.2053  -6.8180  -4.0569   1.8907   3.4474   4.9600   5.2158

          k = 0.4175 0.2360 0.0000 (  5035 PWs)   bands (ev):

   -12.5704  -7.3773  -7.0087  -3.7755   1.1608   3.9294   4.5916   5.6246

          k = 0.4138-0.8090 0.0000 (  5051 PWs)   bands (ev):

   -12.3376  -7.6348  -6.7830  -4.1949   0.7288   4.5621   5.0683   6.3453

          k = 0.4141-0.7140 0.0000 (  5056 PWs)   bands (ev):

   -12.1520  -7.5089  -6.5927  -5.0882   0.6148   5.0970   5.7739   6.3171

          k = 0.4144-0.6190 0.0000 (  5053 PWs)   bands (ev):

   -12.0580  -6.9949  -6.4896  -6.0722   0.6940   4.9490   5.2027   7.2543

          k = 0.4148-0.5240 0.0000 (  5053 PWs)   bands (ev):

   -12.0592  -6.9246  -6.4962  -6.1459   0.7249   4.9273   5.2019   7.2633

          k = 0.4151-0.4290 0.0000 (  5056 PWs)   bands (ev):

   -12.1549  -7.4391  -6.6099  -5.1693   0.6884   5.0930   5.7270   6.2600

          k = 0.4155-0.3340 0.0000 (  5051 PWs)   bands (ev):

   -12.3407  -7.5664  -6.8042  -4.2836   0.8177   4.5559   5.0208   6.3302

          k =-0.4990 0.2868 0.0000 (  5038 PWs)   bands (ev):

   -12.3229  -7.7109  -6.8349  -3.9966   0.8719   4.4584   4.8346   6.2593

          k =-0.4986 0.3818 0.0000 (  5049 PWs)   bands (ev):

   -12.3458  -7.5109  -6.8450  -4.3496   1.0506   4.6130   5.0037   6.1716

          k =-0.4983 0.4768 0.0000 (  5054 PWs)   bands (ev):

   -12.3898  -6.9591  -6.8639  -5.1681   1.4891   4.3233   5.1529   6.3410

          k =-0.4979 0.5718 0.0000 (  5075 PWs)   bands (ev):

   -12.4106  -6.8698  -6.3860  -5.8568   1.7638   4.2123   4.6294   6.6831

          k =-0.4976 0.6668 0.0000 (  5054 PWs)   bands (ev):

   -12.3883  -7.0256  -6.8530  -5.0915   1.4264   4.3223   5.1780   6.3957

          k =-0.4973 0.7618 0.0000 (  5049 PWs)   bands (ev):

   -12.3429  -7.5777  -6.8258  -4.2634   0.9640   4.6117   5.0541   6.1785

          k =-0.5010-0.2832 0.0000 (  5038 PWs)   bands (ev):

   -12.3194  -7.7775  -6.8125  -3.9061   0.7792   4.5059   4.8323   6.2494

     the Fermi energy is    -1.2487 ev

!    total energy              =     -15.10421438 Ry
     estimated scf accuracy    <          6.0E-10 Ry
     smearing contrib. (-TS)   =      -0.00015604 Ry
     internal energy E=F+TS    =     -15.10405834 Ry

     The total energy is F=E-TS. E is the sum of the following terms:
     one-electron contribution =     -65.62259893 Ry
     hartree contribution      =      34.37204184 Ry
     xc contribution           =      -7.33891430 Ry
     ewald contribution        =      23.48541305 Ry

     convergence has been achieved in   7 iterations

     negative rho (up, down):  3.346E-05 0.000E+00

     Forces acting on atoms (cartesian axes, Ry/au):

     atom    1 type  1   force =    -0.00827794    0.00395423    0.00000000
     atom    2 type  1   force =     0.00786603   -0.00395975    0.00000000
     atom    3 type  2   force =     0.00020596    0.00000276    0.00107215
     atom    4 type  2   force =     0.00020596    0.00000276   -0.00107215
     The non-local contrib.  to forces
     atom    1 type  1   force =    -0.01418054   -0.35214023    0.00000000
     atom    2 type  1   force =     0.01227305    0.35213341    0.00000000
     atom    3 type  2   force =     0.00068076   -0.00000684   -0.11396418
     atom    4 type  2   force =     0.00068076   -0.00000684    0.11396418
     The ionic contribution  to forces
     atom    1 type  1   force =    -0.01317758    0.69490076    0.00000000
     atom    2 type  1   force =     0.02188971   -0.69500703    0.00000000
     atom    3 type  2   force =    -0.00435606    0.00005313    2.57649469
     atom    4 type  2   force =    -0.00435606    0.00005313   -2.57649469
     The local contribution  to forces
     atom    1 type  1   force =     0.01864218   -0.34647469    0.00000000
     atom    2 type  1   force =    -0.02586247    0.34658109    0.00000000
     atom    3 type  2   force =     0.00388126   -0.00004364   -2.46146093
     atom    4 type  2   force =     0.00388126   -0.00004364    2.46146093
     The core correction contribution to forces
     atom    1 type  1   force =     0.00043808    0.00767826   -0.00000000
     atom    2 type  1   force =    -0.00043430   -0.00767728   -0.00000000
     atom    3 type  2   force =     0.00000000    0.00000000    0.00000000
     atom    4 type  2   force =     0.00000000    0.00000000    0.00000000
     The Hubbard contrib.    to forces
     atom    1 type  1   force =     0.00000000    0.00000000    0.00000000
     atom    2 type  1   force =     0.00000000    0.00000000    0.00000000
     atom    3 type  2   force =     0.00000000    0.00000000    0.00000000
     atom    4 type  2   force =     0.00000000    0.00000000    0.00000000
     The SCF correction term to forces
     atom    1 type  1   force =    -0.00000006   -0.00000997    0.00000000
     atom    2 type  1   force =     0.00000007    0.00000996   -0.00000000
     atom    3 type  2   force =     0.00000003    0.00000002    0.00000257
     atom    4 type  2   force =     0.00000003    0.00000002   -0.00000257

     Total force =     0.012810     Total SCF correction =     0.000015

     Writing all to output data dir tmpdir/pwscf.save/
 
     init_run     :     26.75s CPU     26.95s WALL (       1 calls)
     electrons    :     15.98s CPU     19.07s WALL (       1 calls)
     forces       :      0.45s CPU      0.53s WALL (       1 calls)

     Called by init_run:
     wfcinit      :      0.78s CPU      0.87s WALL (       1 calls)
     potinit      :     25.70s CPU     25.80s WALL (       1 calls)
     hinit0       :      0.22s CPU      0.23s WALL (       1 calls)

     Called by electrons:
     c_bands      :     12.29s CPU     14.66s WALL (       7 calls)
     sum_band     :      2.02s CPU      2.39s WALL (       7 calls)
     v_of_rho     :     27.01s CPU     27.40s WALL (       8 calls)
     newd         :      0.15s CPU      0.21s WALL (       8 calls)
     mix_rho      :      0.04s CPU      0.04s WALL (       7 calls)
     vdW_kernel   :     25.35s CPU     25.35s WALL (       1 calls)

     Called by c_bands:
     init_us_2    :      0.22s CPU      0.26s WALL (    1184 calls)
     init_us_2:cp :      0.22s CPU      0.25s WALL (    1184 calls)
     cegterg      :     11.81s CPU     14.11s WALL (     518 calls)

     Called by *egterg:
     cdiaghg      :      0.37s CPU      0.44s WALL (    2425 calls)
     h_psi        :     10.59s CPU     12.59s WALL (    2499 calls)
     s_psi        :      0.17s CPU      0.20s WALL (    2499 calls)
     g_psi        :      0.04s CPU      0.05s WALL (    1907 calls)

     Called by h_psi:
     h_psi:calbec :      0.41s CPU      0.49s WALL (    2499 calls)
     vloc_psi     :      9.87s CPU     11.72s WALL (    2499 calls)
     add_vuspsi   :      0.26s CPU      0.31s WALL (    2499 calls)

     General routines
     calbec       :      0.54s CPU      0.66s WALL (    3313 calls)
     fft          :      0.88s CPU      1.14s WALL (     563 calls)
     ffts         :      0.01s CPU      0.01s WALL (      15 calls)
     fftw         :      9.64s CPU     11.49s WALL (   30010 calls)
     interpolate  :      0.02s CPU      0.02s WALL (       8 calls)
 
     Parallel routines
 
     PWSCF        :     43.27s CPU     46.73s WALL

 
   This run was terminated on:  10:19:34   1Dec2023            

=------------------------------------------------------------------------------=
   JOB DONE.
=------------------------------------------------------------------------------=
