
     Program PWSCF v.7.0 starts on 27Oct2023 at 15:53:14 

     This program is part of the open-source Quantum ESPRESSO suite
     for quantum simulation of materials; please cite
         "P. Giannozzi et al., J. Phys.:Condens. Matter 21 395502 (2009);
         "P. Giannozzi et al., J. Phys.:Condens. Matter 29 465901 (2017);
         "P. Giannozzi et al., J. Chem. Phys. 152 154105 (2020);
          URL http://www.quantum-espresso.org", 
     in publications or presentations arising from this work. More details at
     http://www.quantum-espresso.org/quote

     Parallel version (MPI), running on     1 processors

     MPI processes distributed on     1 nodes
     13237 MiB available memory on the printing compute node when the environment starts
 
     Reading input from espresso_pwscf.inp

     Current dimensions of program PWSCF are:
     Max number of different atomic species (ntypx) = 10
     Max number of k-points (npk) =  40000
     Max angular momentum in pseudopotentials (lmaxx) =  4
     file Fe.pbe-spn-kjpaw_psl.0.2.1.UPF: wavefunction(s)  3D renormalized

     Subspace diagonalization in iterative solution of the eigenvalue problem:
     a serial algorithm will be used

 
     G-vector sticks info
     --------------------
     sticks:   dense  smooth     PW     G-vecs:    dense   smooth      PW
     Sum         333     169     63                 3805     1409     321
 
     Using Slab Decomposition
 


     bravais-lattice index     =            3
     lattice parameter (alat)  =       5.4200  a.u.
     unit-cell volume          =      79.6100 (a.u.)^3
     number of atoms/cell      =            1
     number of atomic types    =            1
     number of electrons       =        16.00
     number of Kohn-Sham states=           12
     kinetic-energy cutoff     =      25.0000  Ry
     charge density cutoff     =     200.0000  Ry
     scf convergence threshold =      1.0E-08
     mixing beta               =       0.2000
     number of iterations used =            8  plain     mixing
     Exchange-correlation= SLA  PW   PBX  PBC
                           (   1   4   3   4   0   0   0)

     celldm(1)=   5.420000  celldm(2)=   0.000000  celldm(3)=   0.000000
     celldm(4)=   0.000000  celldm(5)=   0.000000  celldm(6)=   0.000000

     crystal axes: (cart. coord. in units of alat)
               a(1) = (   0.500000   0.500000   0.500000 )  
               a(2) = (  -0.500000   0.500000   0.500000 )  
               a(3) = (  -0.500000  -0.500000   0.500000 )  

     reciprocal axes: (cart. coord. in units 2 pi/alat)
               b(1) = (  1.000000  0.000000  1.000000 )  
               b(2) = ( -1.000000  1.000000  0.000000 )  
               b(3) = (  0.000000 -1.000000  1.000000 )  


     PseudoPot. # 1 for Fe read from file:
     ./Fe.pbe-spn-kjpaw_psl.0.2.1.UPF
     MD5 check sum: e86618425769142926afa95317d90200
     Pseudo is Projector augmented-wave + core cor, Zval = 16.0
     Generated using "atomic" code by A. Dal Corso  v.5.0.99 svn rev. 10869
     Shape of augmentation charge: PSQ
     Using radial grid of 1191 points,  6 beta functions with: 
                l(1) =   0
                l(2) =   0
                l(3) =   1
                l(4) =   1
                l(5) =   2
                l(6) =   2
     Q(r) pseudized with 0 coefficients 


     atomic species   valence    mass     pseudopotential
        Fe            16.00     1.00000     Fe( 1.00)

     Starting magnetic structure 
     atomic species   magnetization
        Fe           0.600

     48 Sym. Ops., with inversion, found


                                    s                        frac. trans.

      isym =  1     identity                                     

 cryst.   s( 1) = (     1          0          0      )
                  (     0          1          0      )
                  (     0          0          1      )

 cart.    s( 1) = (  1.0000000  0.0000000  0.0000000 )
                  (  0.0000000  1.0000000  0.0000000 )
                  (  0.0000000  0.0000000  1.0000000 )


      isym =  2     180 deg rotation - cart. axis [0,0,1]        

 cryst.   s( 2) = (     0          0          1      )
                  (     1         -1          1      )
                  (     1          0          0      )

 cart.    s( 2) = ( -1.0000000  0.0000000  0.0000000 )
                  (  0.0000000 -1.0000000  0.0000000 )
                  (  0.0000000  0.0000000  1.0000000 )


      isym =  3     180 deg rotation - cart. axis [0,1,0]        

 cryst.   s( 3) = (    -1          1         -1      )
                  (     0          0         -1      )
                  (     0         -1          0      )

 cart.    s( 3) = ( -1.0000000  0.0000000  0.0000000 )
                  (  0.0000000  1.0000000  0.0000000 )
                  (  0.0000000  0.0000000 -1.0000000 )


      isym =  4     180 deg rotation - cart. axis [1,0,0]        

 cryst.   s( 4) = (     0         -1          0      )
                  (    -1          0          0      )
                  (    -1          1         -1      )

 cart.    s( 4) = (  1.0000000  0.0000000  0.0000000 )
                  (  0.0000000 -1.0000000  0.0000000 )
                  (  0.0000000  0.0000000 -1.0000000 )


      isym =  5     180 deg rotation - cart. axis [1,1,0]        

 cryst.   s( 5) = (     0          0         -1      )
                  (     0         -1          0      )
                  (    -1          0          0      )

 cart.    s( 5) = (  0.0000000  1.0000000  0.0000000 )
                  (  1.0000000  0.0000000  0.0000000 )
                  (  0.0000000  0.0000000 -1.0000000 )


      isym =  6     180 deg rotation - cart. axis [1,-1,0]       

 cryst.   s( 6) = (    -1          0          0      )
                  (    -1          1         -1      )
                  (     0          0         -1      )

 cart.    s( 6) = (  0.0000000 -1.0000000  0.0000000 )
                  ( -1.0000000  0.0000000  0.0000000 )
                  (  0.0000000  0.0000000 -1.0000000 )


      isym =  7      90 deg rotation - cart. axis [0,0,-1]       

 cryst.   s( 7) = (     1         -1          1      )
                  (     1          0          0      )
                  (     0          1          0      )

 cart.    s( 7) = (  0.0000000  1.0000000  0.0000000 )
                  ( -1.0000000  0.0000000  0.0000000 )
                  (  0.0000000  0.0000000  1.0000000 )


      isym =  8      90 deg rotation - cart. axis [0,0,1]        

 cryst.   s( 8) = (     0          1          0      )
                  (     0          0          1      )
                  (     1         -1          1      )

 cart.    s( 8) = (  0.0000000 -1.0000000  0.0000000 )
                  (  1.0000000  0.0000000  0.0000000 )
                  (  0.0000000  0.0000000  1.0000000 )


      isym =  9     180 deg rotation - cart. axis [1,0,1]        

 cryst.   s( 9) = (     1         -1          1      )
                  (     0         -1          0      )
                  (     0          0         -1      )

 cart.    s( 9) = (  0.0000000  0.0000000  1.0000000 )
                  (  0.0000000 -1.0000000  0.0000000 )
                  (  1.0000000  0.0000000  0.0000000 )


      isym = 10     180 deg rotation - cart. axis [-1,0,1]       

 cryst.   s(10) = (    -1          0          0      )
                  (     0          0          1      )
                  (     0          1          0      )

 cart.    s(10) = (  0.0000000  0.0000000 -1.0000000 )
                  (  0.0000000 -1.0000000  0.0000000 )
                  ( -1.0000000  0.0000000  0.0000000 )


      isym = 11      90 deg rotation - cart. axis [0,1,0]        

 cryst.   s(11) = (     0          0         -1      )
                  (     1          0          0      )
                  (     1         -1          1      )

 cart.    s(11) = (  0.0000000  0.0000000  1.0000000 )
                  (  0.0000000  1.0000000  0.0000000 )
                  ( -1.0000000  0.0000000  0.0000000 )


      isym = 12      90 deg rotation - cart. axis [0,-1,0]       

 cryst.   s(12) = (     0          1          0      )
                  (    -1          1         -1      )
                  (    -1          0          0      )

 cart.    s(12) = (  0.0000000  0.0000000 -1.0000000 )
                  (  0.0000000  1.0000000  0.0000000 )
                  (  1.0000000  0.0000000  0.0000000 )


      isym = 13     180 deg rotation - cart. axis [0,1,1]        

 cryst.   s(13) = (     0          1          0      )
                  (     1          0          0      )
                  (     0          0         -1      )

 cart.    s(13) = ( -1.0000000  0.0000000  0.0000000 )
                  (  0.0000000  0.0000000  1.0000000 )
                  (  0.0000000  1.0000000  0.0000000 )


      isym = 14     180 deg rotation - cart. axis [0,1,-1]       

 cryst.   s(14) = (    -1          0          0      )
                  (     0         -1          0      )
                  (     1         -1          1      )

 cart.    s(14) = ( -1.0000000  0.0000000  0.0000000 )
                  (  0.0000000  0.0000000 -1.0000000 )
                  (  0.0000000 -1.0000000  0.0000000 )


      isym = 15      90 deg rotation - cart. axis [-1,0,0]       

 cryst.   s(15) = (     0          0         -1      )
                  (    -1          1         -1      )
                  (     0          1          0      )

 cart.    s(15) = (  1.0000000  0.0000000  0.0000000 )
                  (  0.0000000  0.0000000  1.0000000 )
                  (  0.0000000 -1.0000000  0.0000000 )


      isym = 16      90 deg rotation - cart. axis [1,0,0]        

 cryst.   s(16) = (     1         -1          1      )
                  (     0          0          1      )
                  (    -1          0          0      )

 cart.    s(16) = (  1.0000000  0.0000000  0.0000000 )
                  (  0.0000000  0.0000000 -1.0000000 )
                  (  0.0000000  1.0000000  0.0000000 )


      isym = 17     120 deg rotation - cart. axis [-1,-1,-1]     

 cryst.   s(17) = (     1          0          0      )
                  (     0          0         -1      )
                  (    -1          1         -1      )

 cart.    s(17) = (  0.0000000  1.0000000  0.0000000 )
                  (  0.0000000  0.0000000  1.0000000 )
                  (  1.0000000  0.0000000  0.0000000 )


      isym = 18     120 deg rotation - cart. axis [-1,1,1]       

 cryst.   s(18) = (    -1          1         -1      )
                  (     0          1          0      )
                  (     1          0          0      )

 cart.    s(18) = (  0.0000000 -1.0000000  0.0000000 )
                  (  0.0000000  0.0000000  1.0000000 )
                  ( -1.0000000  0.0000000  0.0000000 )


      isym = 19     120 deg rotation - cart. axis [1,1,-1]       

 cryst.   s(19) = (     0         -1          0      )
                  (     1         -1          1      )
                  (     0          0          1      )

 cart.    s(19) = (  0.0000000  1.0000000  0.0000000 )
                  (  0.0000000  0.0000000 -1.0000000 )
                  ( -1.0000000  0.0000000  0.0000000 )


      isym = 20     120 deg rotation - cart. axis [1,-1,1]       

 cryst.   s(20) = (     0          0          1      )
                  (    -1          0          0      )
                  (     0         -1          0      )

 cart.    s(20) = (  0.0000000 -1.0000000  0.0000000 )
                  (  0.0000000  0.0000000 -1.0000000 )
                  (  1.0000000  0.0000000  0.0000000 )


      isym = 21     120 deg rotation - cart. axis [1,1,1]        

 cryst.   s(21) = (     1          0          0      )
                  (     1         -1          1      )
                  (     0         -1          0      )

 cart.    s(21) = (  0.0000000  0.0000000  1.0000000 )
                  (  1.0000000  0.0000000  0.0000000 )
                  (  0.0000000  1.0000000  0.0000000 )


      isym = 22     120 deg rotation - cart. axis [-1,1,-1]      

 cryst.   s(22) = (     0         -1          0      )
                  (     0          0         -1      )
                  (     1          0          0      )

 cart.    s(22) = (  0.0000000  0.0000000  1.0000000 )
                  ( -1.0000000  0.0000000  0.0000000 )
                  (  0.0000000 -1.0000000  0.0000000 )


      isym = 23     120 deg rotation - cart. axis [1,-1,-1]      

 cryst.   s(23) = (     0          0          1      )
                  (     0          1          0      )
                  (    -1          1         -1      )

 cart.    s(23) = (  0.0000000  0.0000000 -1.0000000 )
                  ( -1.0000000  0.0000000  0.0000000 )
                  (  0.0000000  1.0000000  0.0000000 )


      isym = 24     120 deg rotation - cart. axis [-1,-1,1]      

 cryst.   s(24) = (    -1          1         -1      )
                  (    -1          0          0      )
                  (     0          0          1      )

 cart.    s(24) = (  0.0000000  0.0000000 -1.0000000 )
                  (  1.0000000  0.0000000  0.0000000 )
                  (  0.0000000 -1.0000000  0.0000000 )


      isym = 25     inversion                                    

 cryst.   s(25) = (    -1          0          0      )
                  (     0         -1          0      )
                  (     0          0         -1      )

 cart.    s(25) = ( -1.0000000  0.0000000  0.0000000 )
                  (  0.0000000 -1.0000000  0.0000000 )
                  (  0.0000000  0.0000000 -1.0000000 )


      isym = 26     inv. 180 deg rotation - cart. axis [0,0,1]   

 cryst.   s(26) = (     0          0         -1      )
                  (    -1          1         -1      )
                  (    -1          0          0      )

 cart.    s(26) = (  1.0000000  0.0000000  0.0000000 )
                  (  0.0000000  1.0000000  0.0000000 )
                  (  0.0000000  0.0000000 -1.0000000 )


      isym = 27     inv. 180 deg rotation - cart. axis [0,1,0]   

 cryst.   s(27) = (     1         -1          1      )
                  (     0          0          1      )
                  (     0          1          0      )

 cart.    s(27) = (  1.0000000  0.0000000  0.0000000 )
                  (  0.0000000 -1.0000000  0.0000000 )
                  (  0.0000000  0.0000000  1.0000000 )


      isym = 28     inv. 180 deg rotation - cart. axis [1,0,0]   

 cryst.   s(28) = (     0          1          0      )
                  (     1          0          0      )
                  (     1         -1          1      )

 cart.    s(28) = ( -1.0000000  0.0000000  0.0000000 )
                  (  0.0000000  1.0000000  0.0000000 )
                  (  0.0000000  0.0000000  1.0000000 )


      isym = 29     inv. 180 deg rotation - cart. axis [1,1,0]   

 cryst.   s(29) = (     0          0          1      )
                  (     0          1          0      )
                  (     1          0          0      )

 cart.    s(29) = (  0.0000000 -1.0000000  0.0000000 )
                  ( -1.0000000  0.0000000  0.0000000 )
                  (  0.0000000  0.0000000  1.0000000 )


      isym = 30     inv. 180 deg rotation - cart. axis [1,-1,0]  

 cryst.   s(30) = (     1          0          0      )
                  (     1         -1          1      )
                  (     0          0          1      )

 cart.    s(30) = (  0.0000000  1.0000000  0.0000000 )
                  (  1.0000000  0.0000000  0.0000000 )
                  (  0.0000000  0.0000000  1.0000000 )


      isym = 31     inv.  90 deg rotation - cart. axis [0,0,-1]  

 cryst.   s(31) = (    -1          1         -1      )
                  (    -1          0          0      )
                  (     0         -1          0      )

 cart.    s(31) = (  0.0000000 -1.0000000  0.0000000 )
                  (  1.0000000  0.0000000  0.0000000 )
                  (  0.0000000  0.0000000 -1.0000000 )


      isym = 32     inv.  90 deg rotation - cart. axis [0,0,1]   

 cryst.   s(32) = (     0         -1          0      )
                  (     0          0         -1      )
                  (    -1          1         -1      )

 cart.    s(32) = (  0.0000000  1.0000000  0.0000000 )
                  ( -1.0000000  0.0000000  0.0000000 )
                  (  0.0000000  0.0000000 -1.0000000 )


      isym = 33     inv. 180 deg rotation - cart. axis [1,0,1]   

 cryst.   s(33) = (    -1          1         -1      )
                  (     0          1          0      )
                  (     0          0          1      )

 cart.    s(33) = (  0.0000000  0.0000000 -1.0000000 )
                  (  0.0000000  1.0000000  0.0000000 )
                  ( -1.0000000  0.0000000  0.0000000 )


      isym = 34     inv. 180 deg rotation - cart. axis [-1,0,1]  

 cryst.   s(34) = (     1          0          0      )
                  (     0          0         -1      )
                  (     0         -1          0      )

 cart.    s(34) = (  0.0000000  0.0000000  1.0000000 )
                  (  0.0000000  1.0000000  0.0000000 )
                  (  1.0000000  0.0000000  0.0000000 )


      isym = 35     inv.  90 deg rotation - cart. axis [0,1,0]   

 cryst.   s(35) = (     0          0          1      )
                  (    -1          0          0      )
                  (    -1          1         -1      )

 cart.    s(35) = (  0.0000000  0.0000000 -1.0000000 )
                  (  0.0000000 -1.0000000  0.0000000 )
                  (  1.0000000  0.0000000  0.0000000 )


      isym = 36     inv.  90 deg rotation - cart. axis [0,-1,0]  

 cryst.   s(36) = (     0         -1          0      )
                  (     1         -1          1      )
                  (     1          0          0      )

 cart.    s(36) = (  0.0000000  0.0000000  1.0000000 )
                  (  0.0000000 -1.0000000  0.0000000 )
                  ( -1.0000000  0.0000000  0.0000000 )


      isym = 37     inv. 180 deg rotation - cart. axis [0,1,1]   

 cryst.   s(37) = (     0         -1          0      )
                  (    -1          0          0      )
                  (     0          0          1      )

 cart.    s(37) = (  1.0000000  0.0000000  0.0000000 )
                  (  0.0000000  0.0000000 -1.0000000 )
                  (  0.0000000 -1.0000000  0.0000000 )


      isym = 38     inv. 180 deg rotation - cart. axis [0,1,-1]  

 cryst.   s(38) = (     1          0          0      )
                  (     0          1          0      )
                  (    -1          1         -1      )

 cart.    s(38) = (  1.0000000  0.0000000  0.0000000 )
                  (  0.0000000  0.0000000  1.0000000 )
                  (  0.0000000  1.0000000  0.0000000 )


      isym = 39     inv.  90 deg rotation - cart. axis [-1,0,0]  

 cryst.   s(39) = (     0          0          1      )
                  (     1         -1          1      )
                  (     0         -1          0      )

 cart.    s(39) = ( -1.0000000  0.0000000  0.0000000 )
                  (  0.0000000  0.0000000 -1.0000000 )
                  (  0.0000000  1.0000000  0.0000000 )


      isym = 40     inv.  90 deg rotation - cart. axis [1,0,0]   

 cryst.   s(40) = (    -1          1         -1      )
                  (     0          0         -1      )
                  (     1          0          0      )

 cart.    s(40) = ( -1.0000000  0.0000000  0.0000000 )
                  (  0.0000000  0.0000000  1.0000000 )
                  (  0.0000000 -1.0000000  0.0000000 )


      isym = 41     inv. 120 deg rotation - cart. axis [-1,-1,-1]

 cryst.   s(41) = (    -1          0          0      )
                  (     0          0          1      )
                  (     1         -1          1      )

 cart.    s(41) = (  0.0000000 -1.0000000  0.0000000 )
                  (  0.0000000  0.0000000 -1.0000000 )
                  ( -1.0000000  0.0000000  0.0000000 )


      isym = 42     inv. 120 deg rotation - cart. axis [-1,1,1]  

 cryst.   s(42) = (     1         -1          1      )
                  (     0         -1          0      )
                  (    -1          0          0      )

 cart.    s(42) = (  0.0000000  1.0000000  0.0000000 )
                  (  0.0000000  0.0000000 -1.0000000 )
                  (  1.0000000  0.0000000  0.0000000 )


      isym = 43     inv. 120 deg rotation - cart. axis [1,1,-1]  

 cryst.   s(43) = (     0          1          0      )
                  (    -1          1         -1      )
                  (     0          0         -1      )

 cart.    s(43) = (  0.0000000 -1.0000000  0.0000000 )
                  (  0.0000000  0.0000000  1.0000000 )
                  (  1.0000000  0.0000000  0.0000000 )


      isym = 44     inv. 120 deg rotation - cart. axis [1,-1,1]  

 cryst.   s(44) = (     0          0         -1      )
                  (     1          0          0      )
                  (     0          1          0      )

 cart.    s(44) = (  0.0000000  1.0000000  0.0000000 )
                  (  0.0000000  0.0000000  1.0000000 )
                  ( -1.0000000  0.0000000  0.0000000 )


      isym = 45     inv. 120 deg rotation - cart. axis [1,1,1]   

 cryst.   s(45) = (    -1          0          0      )
                  (    -1          1         -1      )
                  (     0          1          0      )

 cart.    s(45) = (  0.0000000  0.0000000 -1.0000000 )
                  ( -1.0000000  0.0000000  0.0000000 )
                  (  0.0000000 -1.0000000  0.0000000 )


      isym = 46     inv. 120 deg rotation - cart. axis [-1,1,-1] 

 cryst.   s(46) = (     0          1          0      )
                  (     0          0          1      )
                  (    -1          0          0      )

 cart.    s(46) = (  0.0000000  0.0000000 -1.0000000 )
                  (  1.0000000  0.0000000  0.0000000 )
                  (  0.0000000  1.0000000  0.0000000 )


      isym = 47     inv. 120 deg rotation - cart. axis [1,-1,-1] 

 cryst.   s(47) = (     0          0         -1      )
                  (     0         -1          0      )
                  (     1         -1          1      )

 cart.    s(47) = (  0.0000000  0.0000000  1.0000000 )
                  (  1.0000000  0.0000000  0.0000000 )
                  (  0.0000000 -1.0000000  0.0000000 )


      isym = 48     inv. 120 deg rotation - cart. axis [-1,-1,1] 

 cryst.   s(48) = (     1         -1          1      )
                  (     1          0          0      )
                  (     0          0         -1      )

 cart.    s(48) = (  0.0000000  0.0000000  1.0000000 )
                  ( -1.0000000  0.0000000  0.0000000 )
                  (  0.0000000  1.0000000  0.0000000 )


     point group O_h (m-3m) 
     there are 10 classes
     the character table:

       E     8C3   3C2   6C4   6C2'  i     8S6   3s_h  6S4   6s_d 
A_1g   1.00  1.00  1.00  1.00  1.00  1.00  1.00  1.00  1.00  1.00
A_2g   1.00  1.00  1.00 -1.00 -1.00  1.00  1.00  1.00 -1.00 -1.00
E_g    2.00 -1.00  2.00  0.00  0.00  2.00 -1.00  2.00  0.00  0.00
T_1g   3.00  0.00 -1.00  1.00 -1.00  3.00  0.00 -1.00  1.00 -1.00
T_2g   3.00  0.00 -1.00 -1.00  1.00  3.00  0.00 -1.00 -1.00  1.00
A_1u   1.00  1.00  1.00  1.00  1.00 -1.00 -1.00 -1.00 -1.00 -1.00
A_2u   1.00  1.00  1.00 -1.00 -1.00 -1.00 -1.00 -1.00  1.00  1.00
E_u    2.00 -1.00  2.00  0.00  0.00 -2.00  1.00 -2.00  0.00  0.00
T_1u   3.00  0.00 -1.00  1.00 -1.00 -3.00  0.00  1.00 -1.00  1.00
T_2u   3.00  0.00 -1.00 -1.00  1.00 -3.00  0.00  1.00  1.00 -1.00

     the symmetry operations in each class and the name of the first element:

     E        1
          identity                                               
     8C3     17   19   20   18   24   21   22   23
          120 deg rotation - cart. axis [-1,-1,-1]               
     3C2      2    4    3
          180 deg rotation - cart. axis [0,0,1]                  
     6C4      7    8   15   16   12   11
           90 deg rotation - cart. axis [0,0,-1]                 
     6C2'     5    6   14   13   10    9
          180 deg rotation - cart. axis [1,1,0]                  
     i       25
          inversion                                              
     8S6     41   43   44   42   48   45   46   47
          inv. 120 deg rotation - cart. axis [-1,-1,-1]          
     3s_h    26   28   27
          inv. 180 deg rotation - cart. axis [0,0,1]             
     6S4     31   32   39   40   36   35
          inv.  90 deg rotation - cart. axis [0,0,-1]            
     6s_d    29   30   38   37   34   33
          inv. 180 deg rotation - cart. axis [1,1,0]             

   Cartesian axes

     site n.     atom                  positions (alat units)
         1           Fe  tau(   1) = (   0.0000000   0.0000000   0.0000000  )

   Crystallographic axes

     site n.     atom                  positions (cryst. coord.)
         1           Fe  tau(   1) = (  0.0000000  0.0000000  0.0000000  )

     number of k points=    26  Marzari-Vanderbilt smearing, width (Ry)=  0.0100
                       cart. coord. in units 2pi/alat
        k(    1) = (   0.0000000   0.0000000   0.1250000), wk =   0.0117188
        k(    2) = (   0.0000000  -0.1250000   0.2500000), wk =   0.0468750
        k(    3) = (   0.0000000  -0.2500000   0.3750000), wk =   0.0468750
        k(    4) = (   0.0000000  -0.3750000   0.5000000), wk =   0.0468750
        k(    5) = (  -0.1250000   0.1250000   0.1250000), wk =   0.0156250
        k(    6) = (  -0.1250000  -0.1250000   0.3750000), wk =   0.0468750
        k(    7) = (  -0.1250000  -0.2500000   0.5000000), wk =   0.0937500
        k(    8) = (  -0.1250000   0.6250000  -0.3750000), wk =   0.0468750
        k(    9) = (  -0.2500000   0.2500000   0.1250000), wk =   0.0468750
        k(   10) = (  -0.2500000   0.7500000  -0.3750000), wk =   0.0468750
        k(   11) = (  -0.3750000   0.3750000   0.1250000), wk =   0.0468750
        k(   12) = (  -0.3750000   0.2500000   0.2500000), wk =   0.0468750
        k(   13) = (   0.5000000  -0.5000000   0.1250000), wk =   0.0234375
        k(   14) = (   0.5000000  -0.6250000   0.2500000), wk =   0.0937500
        k(   15) = (   0.3750000  -0.6250000   0.3750000), wk =   0.0156250
        k(   16) = (   0.0000000   0.0000000   0.3750000), wk =   0.0117188
        k(   17) = (   0.0000000  -0.1250000   0.5000000), wk =   0.0468750
        k(   18) = (   0.0000000  -0.2500000   0.6250000), wk =   0.0468750
        k(   19) = (  -0.1250000  -0.1250000   0.6250000), wk =   0.0468750
        k(   20) = (  -0.1250000   0.7500000  -0.2500000), wk =   0.0468750
        k(   21) = (   0.6250000  -0.6250000   0.3750000), wk =   0.0156250
        k(   22) = (   0.5000000  -0.5000000   0.3750000), wk =   0.0234375
        k(   23) = (   0.0000000   0.0000000   0.6250000), wk =   0.0117188
        k(   24) = (   0.0000000  -0.1250000   0.7500000), wk =   0.0468750
        k(   25) = (  -0.1250000   0.8750000  -0.1250000), wk =   0.0156250
        k(   26) = (   0.0000000   0.0000000   0.8750000), wk =   0.0117188

                       cryst. coord.
        k(    1) = (   0.0625000   0.0625000   0.0625000), wk =   0.0117188
        k(    2) = (   0.0625000   0.0625000   0.1875000), wk =   0.0468750
        k(    3) = (   0.0625000   0.0625000   0.3125000), wk =   0.0468750
        k(    4) = (   0.0625000   0.0625000   0.4375000), wk =   0.0468750
        k(    5) = (   0.0625000   0.1875000   0.0625000), wk =   0.0156250
        k(    6) = (   0.0625000   0.1875000   0.3125000), wk =   0.0468750
        k(    7) = (   0.0625000   0.1875000   0.4375000), wk =   0.0937500
        k(    8) = (   0.0625000   0.1875000  -0.4375000), wk =   0.0468750
        k(    9) = (   0.0625000   0.3125000   0.0625000), wk =   0.0468750
        k(   10) = (   0.0625000   0.3125000  -0.4375000), wk =   0.0468750
        k(   11) = (   0.0625000   0.4375000   0.0625000), wk =   0.0468750
        k(   12) = (   0.0625000   0.4375000   0.1875000), wk =   0.0468750
        k(   13) = (   0.0625000  -0.4375000   0.0625000), wk =   0.0234375
        k(   14) = (   0.0625000  -0.4375000   0.1875000), wk =   0.0937500
        k(   15) = (   0.0625000  -0.3125000   0.3125000), wk =   0.0156250
        k(   16) = (   0.1875000   0.1875000   0.1875000), wk =   0.0117188
        k(   17) = (   0.1875000   0.1875000   0.3125000), wk =   0.0468750
        k(   18) = (   0.1875000   0.1875000   0.4375000), wk =   0.0468750
        k(   19) = (   0.1875000   0.3125000   0.4375000), wk =   0.0468750
        k(   20) = (   0.1875000   0.3125000  -0.4375000), wk =   0.0468750
        k(   21) = (   0.1875000  -0.4375000   0.1875000), wk =   0.0156250
        k(   22) = (   0.1875000  -0.3125000   0.1875000), wk =   0.0234375
        k(   23) = (   0.3125000   0.3125000   0.3125000), wk =   0.0117188
        k(   24) = (   0.3125000   0.3125000   0.4375000), wk =   0.0468750
        k(   25) = (   0.3125000   0.4375000  -0.4375000), wk =   0.0156250
        k(   26) = (   0.4375000   0.4375000   0.4375000), wk =   0.0117188

     Dense  grid:     3805 G-vectors     FFT dimensions: (  24,  24,  24)

     Smooth grid:     1409 G-vectors     FFT dimensions: (  15,  15,  15)

     Dynamical RAM for                 wfc:       0.03 MB

     Dynamical RAM for     wfc (w. buffer):       1.63 MB

     Dynamical RAM for           str. fact:       0.06 MB

     Dynamical RAM for           local pot:       0.00 MB

     Dynamical RAM for          nlocal pot:       0.05 MB

     Dynamical RAM for                qrad:       1.14 MB

     Dynamical RAM for          rho,v,vnew:       0.98 MB

     Dynamical RAM for               rhoin:       0.33 MB

     Dynamical RAM for            rho*nmix:       1.86 MB

     Dynamical RAM for           G-vectors:       0.23 MB

     Dynamical RAM for          h,s,v(r/c):       0.03 MB

     Dynamical RAM for          <psi|beta>:       0.00 MB

     Dynamical RAM for                 psi:       0.06 MB

     Dynamical RAM for                hpsi:       0.06 MB

     Dynamical RAM for                spsi:       0.06 MB

     Dynamical RAM for      wfcinit/wfcrot:       0.07 MB

     Dynamical RAM for           addusdens:      10.92 MB

     Estimated static dynamical RAM per process >       5.16 MB

     Estimated max dynamical RAM per process >      17.93 MB

     Check: negative core charge=   -0.000936
     Generating pointlists ...
     new r_m :   0.3572 (alat units)  1.9362 (a.u.) for type    1

     Initial potential from superposition of free atoms

     starting charge      15.9996, renormalised to      16.0000
     Starting wfcs are   13 randomized atomic wfcs
     Checking if some PAW data can be deallocated... 

     total cpu time spent up to now is        0.5 secs

     per-process dynamical memory:    72.2 Mb

     Self-consistent Calculation

     iteration #  1     ecut=    25.00 Ry     beta= 0.20
     Davidson diagonalization with overlap

---- Real-time Memory Report at c_bands before calling an iterative solver
            76 MiB given to the printing process from OS
            70 MiB allocation reported by mallinfo(arena+hblkhd)
         13218 MiB available memory on the node where the printing process lives
------------------
     ethr =  1.00E-02,  avg # of iterations =  3.9

     negative rho (up, down):  0.000E+00 5.206E-05

     total cpu time spent up to now is        0.9 secs

     total energy              =    -328.16293331 Ry
     estimated scf accuracy    <       1.11602297 Ry

     total magnetization       =     3.49 Bohr mag/cell
     absolute magnetization    =     3.50 Bohr mag/cell

     iteration #  2     ecut=    25.00 Ry     beta= 0.20
     Davidson diagonalization with overlap

---- Real-time Memory Report at c_bands before calling an iterative solver
            82 MiB given to the printing process from OS
            87 MiB allocation reported by mallinfo(arena+hblkhd)
         13203 MiB available memory on the node where the printing process lives
------------------
     ethr =  6.98E-03,  avg # of iterations =  1.1

     negative rho (up, down):  0.000E+00 3.919E-04

     total cpu time spent up to now is        1.2 secs

     total energy              =    -328.57870007 Ry
     estimated scf accuracy    <       0.74317799 Ry

     total magnetization       =     3.14 Bohr mag/cell
     absolute magnetization    =     3.21 Bohr mag/cell

     iteration #  3     ecut=    25.00 Ry     beta= 0.20
     Davidson diagonalization with overlap

---- Real-time Memory Report at c_bands before calling an iterative solver
            82 MiB given to the printing process from OS
            87 MiB allocation reported by mallinfo(arena+hblkhd)
         13203 MiB available memory on the node where the printing process lives
------------------
     ethr =  4.64E-03,  avg # of iterations =  1.1

     negative rho (up, down):  0.000E+00 5.244E-04

     total cpu time spent up to now is        1.5 secs

     total energy              =    -328.69201738 Ry
     estimated scf accuracy    <       0.19813201 Ry

     total magnetization       =     2.75 Bohr mag/cell
     absolute magnetization    =     2.87 Bohr mag/cell

     iteration #  4     ecut=    25.00 Ry     beta= 0.20
     Davidson diagonalization with overlap

---- Real-time Memory Report at c_bands before calling an iterative solver
            83 MiB given to the printing process from OS
            87 MiB allocation reported by mallinfo(arena+hblkhd)
         13203 MiB available memory on the node where the printing process lives
------------------
     ethr =  1.24E-03,  avg # of iterations =  1.4

     negative rho (up, down):  0.000E+00 5.430E-04

     total cpu time spent up to now is        1.8 secs

     total energy              =    -328.71545782 Ry
     estimated scf accuracy    <       0.00444464 Ry

     total magnetization       =     2.46 Bohr mag/cell
     absolute magnetization    =     2.60 Bohr mag/cell

     iteration #  5     ecut=    25.00 Ry     beta= 0.20
     Davidson diagonalization with overlap

---- Real-time Memory Report at c_bands before calling an iterative solver
            83 MiB given to the printing process from OS
            87 MiB allocation reported by mallinfo(arena+hblkhd)
         13202 MiB available memory on the node where the printing process lives
------------------
     ethr =  2.78E-05,  avg # of iterations =  2.0

     negative rho (up, down):  0.000E+00 3.207E-04

     total cpu time spent up to now is        2.2 secs

     total energy              =    -328.71734381 Ry
     estimated scf accuracy    <       0.00093866 Ry

     total magnetization       =     2.45 Bohr mag/cell
     absolute magnetization    =     2.58 Bohr mag/cell

     iteration #  6     ecut=    25.00 Ry     beta= 0.20
     Davidson diagonalization with overlap

---- Real-time Memory Report at c_bands before calling an iterative solver
            83 MiB given to the printing process from OS
            87 MiB allocation reported by mallinfo(arena+hblkhd)
         13191 MiB available memory on the node where the printing process lives
------------------
     ethr =  5.87E-06,  avg # of iterations =  2.1

     negative rho (up, down):  0.000E+00 3.243E-04

     total cpu time spent up to now is        2.5 secs

     total energy              =    -328.71953218 Ry
     estimated scf accuracy    <       0.00147245 Ry

     total magnetization       =     2.46 Bohr mag/cell
     absolute magnetization    =     2.57 Bohr mag/cell

     iteration #  7     ecut=    25.00 Ry     beta= 0.20
     Davidson diagonalization with overlap

---- Real-time Memory Report at c_bands before calling an iterative solver
            83 MiB given to the printing process from OS
            87 MiB allocation reported by mallinfo(arena+hblkhd)
         13200 MiB available memory on the node where the printing process lives
------------------
     ethr =  5.87E-06,  avg # of iterations =  2.0

     negative rho (up, down):  0.000E+00 3.429E-04

     total cpu time spent up to now is        2.9 secs

     total energy              =    -328.72158606 Ry
     estimated scf accuracy    <       0.00006093 Ry

     total magnetization       =     2.44 Bohr mag/cell
     absolute magnetization    =     2.54 Bohr mag/cell

     iteration #  8     ecut=    25.00 Ry     beta= 0.20
     Davidson diagonalization with overlap

---- Real-time Memory Report at c_bands before calling an iterative solver
            83 MiB given to the printing process from OS
            88 MiB allocation reported by mallinfo(arena+hblkhd)
         13200 MiB available memory on the node where the printing process lives
------------------
     ethr =  3.81E-07,  avg # of iterations =  1.5

     negative rho (up, down):  0.000E+00 3.603E-04

     total cpu time spent up to now is        3.2 secs

     total energy              =    -328.72280724 Ry
     estimated scf accuracy    <       0.00010522 Ry

     total magnetization       =     2.43 Bohr mag/cell
     absolute magnetization    =     2.54 Bohr mag/cell

     iteration #  9     ecut=    25.00 Ry     beta= 0.20
     Davidson diagonalization with overlap

---- Real-time Memory Report at c_bands before calling an iterative solver
            83 MiB given to the printing process from OS
            88 MiB allocation reported by mallinfo(arena+hblkhd)
         13200 MiB available memory on the node where the printing process lives
------------------
     ethr =  3.81E-07,  avg # of iterations =  1.1

     negative rho (up, down):  0.000E+00 3.663E-04

     total cpu time spent up to now is        3.5 secs

     total energy              =    -328.72258872 Ry
     estimated scf accuracy    <       0.00017860 Ry

     total magnetization       =     2.43 Bohr mag/cell
     absolute magnetization    =     2.53 Bohr mag/cell

     iteration # 10     ecut=    25.00 Ry     beta= 0.20
     Davidson diagonalization with overlap

---- Real-time Memory Report at c_bands before calling an iterative solver
            83 MiB given to the printing process from OS
            88 MiB allocation reported by mallinfo(arena+hblkhd)
         13199 MiB available memory on the node where the printing process lives
------------------
     ethr =  3.81E-07,  avg # of iterations =  2.0

     negative rho (up, down):  0.000E+00 3.834E-04

     total cpu time spent up to now is        3.9 secs

     total energy              =    -328.72362522 Ry
     estimated scf accuracy    <       0.00008164 Ry

     total magnetization       =     2.43 Bohr mag/cell
     absolute magnetization    =     2.53 Bohr mag/cell

     iteration # 11     ecut=    25.00 Ry     beta= 0.20
     Davidson diagonalization with overlap

---- Real-time Memory Report at c_bands before calling an iterative solver
            83 MiB given to the printing process from OS
            88 MiB allocation reported by mallinfo(arena+hblkhd)
         13199 MiB available memory on the node where the printing process lives
------------------
     ethr =  3.81E-07,  avg # of iterations =  1.1

     negative rho (up, down):  0.000E+00 3.937E-04

     total cpu time spent up to now is        4.2 secs

     total energy              =    -328.72411277 Ry
     estimated scf accuracy    <       0.00002554 Ry

     total magnetization       =     2.43 Bohr mag/cell
     absolute magnetization    =     2.53 Bohr mag/cell

     iteration # 12     ecut=    25.00 Ry     beta= 0.20
     Davidson diagonalization with overlap

---- Real-time Memory Report at c_bands before calling an iterative solver
            83 MiB given to the printing process from OS
            88 MiB allocation reported by mallinfo(arena+hblkhd)
         13199 MiB available memory on the node where the printing process lives
------------------
     ethr =  1.60E-07,  avg # of iterations =  1.1

     negative rho (up, down):  0.000E+00 4.019E-04

     total cpu time spent up to now is        4.5 secs

     total energy              =    -328.72442695 Ry
     estimated scf accuracy    <       0.00002187 Ry

     total magnetization       =     2.43 Bohr mag/cell
     absolute magnetization    =     2.53 Bohr mag/cell

     iteration # 13     ecut=    25.00 Ry     beta= 0.20
     Davidson diagonalization with overlap

---- Real-time Memory Report at c_bands before calling an iterative solver
            83 MiB given to the printing process from OS
            88 MiB allocation reported by mallinfo(arena+hblkhd)
         13201 MiB available memory on the node where the printing process lives
------------------
     ethr =  1.37E-07,  avg # of iterations =  1.0

     negative rho (up, down):  0.000E+00 4.147E-04

     total cpu time spent up to now is        4.9 secs

     total energy              =    -328.72472281 Ry
     estimated scf accuracy    <       0.00002091 Ry

     total magnetization       =     2.43 Bohr mag/cell
     absolute magnetization    =     2.53 Bohr mag/cell

     iteration # 14     ecut=    25.00 Ry     beta= 0.20
     Davidson diagonalization with overlap

---- Real-time Memory Report at c_bands before calling an iterative solver
            83 MiB given to the printing process from OS
            88 MiB allocation reported by mallinfo(arena+hblkhd)
         13200 MiB available memory on the node where the printing process lives
------------------
     ethr =  1.31E-07,  avg # of iterations =  1.8

     negative rho (up, down):  0.000E+00 4.192E-04

     total cpu time spent up to now is        5.2 secs

     total energy              =    -328.72483851 Ry
     estimated scf accuracy    <       0.00000290 Ry

     total magnetization       =     2.43 Bohr mag/cell
     absolute magnetization    =     2.53 Bohr mag/cell

     iteration # 15     ecut=    25.00 Ry     beta= 0.20
     Davidson diagonalization with overlap

---- Real-time Memory Report at c_bands before calling an iterative solver
            83 MiB given to the printing process from OS
            88 MiB allocation reported by mallinfo(arena+hblkhd)
         13200 MiB available memory on the node where the printing process lives
------------------
     ethr =  1.81E-08,  avg # of iterations =  1.9

     negative rho (up, down):  0.000E+00 4.227E-04

     total cpu time spent up to now is        5.5 secs

     total energy              =    -328.72491333 Ry
     estimated scf accuracy    <       0.00000309 Ry

     total magnetization       =     2.43 Bohr mag/cell
     absolute magnetization    =     2.53 Bohr mag/cell

     iteration # 16     ecut=    25.00 Ry     beta= 0.20
     Davidson diagonalization with overlap

---- Real-time Memory Report at c_bands before calling an iterative solver
            83 MiB given to the printing process from OS
            88 MiB allocation reported by mallinfo(arena+hblkhd)
         13200 MiB available memory on the node where the printing process lives
------------------
     ethr =  1.81E-08,  avg # of iterations =  1.4

     negative rho (up, down):  0.000E+00 4.262E-04

     total cpu time spent up to now is        5.9 secs

     total energy              =    -328.72496446 Ry
     estimated scf accuracy    <       0.00000368 Ry

     total magnetization       =     2.44 Bohr mag/cell
     absolute magnetization    =     2.53 Bohr mag/cell

     iteration # 17     ecut=    25.00 Ry     beta= 0.20
     Davidson diagonalization with overlap

---- Real-time Memory Report at c_bands before calling an iterative solver
            83 MiB given to the printing process from OS
            88 MiB allocation reported by mallinfo(arena+hblkhd)
         13200 MiB available memory on the node where the printing process lives
------------------
     ethr =  1.81E-08,  avg # of iterations =  1.1

     negative rho (up, down):  0.000E+00 4.288E-04

     total cpu time spent up to now is        6.2 secs

     total energy              =    -328.72499802 Ry
     estimated scf accuracy    <       0.00000385 Ry

     total magnetization       =     2.44 Bohr mag/cell
     absolute magnetization    =     2.53 Bohr mag/cell

     iteration # 18     ecut=    25.00 Ry     beta= 0.20
     Davidson diagonalization with overlap

---- Real-time Memory Report at c_bands before calling an iterative solver
            83 MiB given to the printing process from OS
            88 MiB allocation reported by mallinfo(arena+hblkhd)
         13200 MiB available memory on the node where the printing process lives
------------------
     ethr =  1.81E-08,  avg # of iterations =  1.0

     negative rho (up, down):  0.000E+00 4.308E-04

     total cpu time spent up to now is        6.5 secs

     total energy              =    -328.72501932 Ry
     estimated scf accuracy    <       0.00000456 Ry

     total magnetization       =     2.44 Bohr mag/cell
     absolute magnetization    =     2.53 Bohr mag/cell

     iteration # 19     ecut=    25.00 Ry     beta= 0.20
     Davidson diagonalization with overlap

---- Real-time Memory Report at c_bands before calling an iterative solver
            83 MiB given to the printing process from OS
            88 MiB allocation reported by mallinfo(arena+hblkhd)
         13200 MiB available memory on the node where the printing process lives
------------------
     ethr =  1.81E-08,  avg # of iterations =  1.0

     negative rho (up, down):  0.000E+00 4.321E-04

     total cpu time spent up to now is        6.8 secs

     total energy              =    -328.72503109 Ry
     estimated scf accuracy    <       0.00000615 Ry

     total magnetization       =     2.44 Bohr mag/cell
     absolute magnetization    =     2.53 Bohr mag/cell

     iteration # 20     ecut=    25.00 Ry     beta= 0.20
     Davidson diagonalization with overlap

---- Real-time Memory Report at c_bands before calling an iterative solver
            83 MiB given to the printing process from OS
            88 MiB allocation reported by mallinfo(arena+hblkhd)
         13200 MiB available memory on the node where the printing process lives
------------------
     ethr =  1.81E-08,  avg # of iterations =  1.0

     negative rho (up, down):  0.000E+00 4.340E-04

     total cpu time spent up to now is        7.2 secs

     total energy              =    -328.72504014 Ry
     estimated scf accuracy    <       0.00000813 Ry

     total magnetization       =     2.44 Bohr mag/cell
     absolute magnetization    =     2.53 Bohr mag/cell

     iteration # 21     ecut=    25.00 Ry     beta= 0.20
     Davidson diagonalization with overlap

---- Real-time Memory Report at c_bands before calling an iterative solver
            83 MiB given to the printing process from OS
            88 MiB allocation reported by mallinfo(arena+hblkhd)
         13200 MiB available memory on the node where the printing process lives
------------------
     ethr =  1.81E-08,  avg # of iterations =  1.0

     negative rho (up, down):  0.000E+00 4.364E-04

     total cpu time spent up to now is        7.5 secs

     total energy              =    -328.72504613 Ry
     estimated scf accuracy    <       0.00000599 Ry

     total magnetization       =     2.44 Bohr mag/cell
     absolute magnetization    =     2.53 Bohr mag/cell

     iteration # 22     ecut=    25.00 Ry     beta= 0.20
     Davidson diagonalization with overlap

---- Real-time Memory Report at c_bands before calling an iterative solver
            83 MiB given to the printing process from OS
            88 MiB allocation reported by mallinfo(arena+hblkhd)
         13200 MiB available memory on the node where the printing process lives
------------------
     ethr =  1.81E-08,  avg # of iterations =  1.1

     negative rho (up, down):  0.000E+00 4.377E-04

     total cpu time spent up to now is        7.8 secs

     total energy              =    -328.72504938 Ry
     estimated scf accuracy    <       0.00000133 Ry

     total magnetization       =     2.44 Bohr mag/cell
     absolute magnetization    =     2.53 Bohr mag/cell

     iteration # 23     ecut=    25.00 Ry     beta= 0.20
     Davidson diagonalization with overlap

---- Real-time Memory Report at c_bands before calling an iterative solver
            83 MiB given to the printing process from OS
            88 MiB allocation reported by mallinfo(arena+hblkhd)
         13200 MiB available memory on the node where the printing process lives
------------------
     ethr =  8.29E-09,  avg # of iterations =  1.1

     negative rho (up, down):  0.000E+00 4.384E-04

     total cpu time spent up to now is        8.1 secs

     total energy              =    -328.72505347 Ry
     estimated scf accuracy    <       0.00000032 Ry

     total magnetization       =     2.44 Bohr mag/cell
     absolute magnetization    =     2.54 Bohr mag/cell

     iteration # 24     ecut=    25.00 Ry     beta= 0.20
     Davidson diagonalization with overlap

---- Real-time Memory Report at c_bands before calling an iterative solver
            83 MiB given to the printing process from OS
            88 MiB allocation reported by mallinfo(arena+hblkhd)
         13200 MiB available memory on the node where the printing process lives
------------------
     ethr =  1.98E-09,  avg # of iterations =  1.0

     negative rho (up, down):  0.000E+00 4.392E-04

     total cpu time spent up to now is        8.5 secs

     total energy              =    -328.72505446 Ry
     estimated scf accuracy    <       0.00000039 Ry

     total magnetization       =     2.44 Bohr mag/cell
     absolute magnetization    =     2.54 Bohr mag/cell

     iteration # 25     ecut=    25.00 Ry     beta= 0.20
     Davidson diagonalization with overlap

---- Real-time Memory Report at c_bands before calling an iterative solver
            83 MiB given to the printing process from OS
            88 MiB allocation reported by mallinfo(arena+hblkhd)
         13189 MiB available memory on the node where the printing process lives
------------------
     ethr =  1.98E-09,  avg # of iterations =  1.2

     negative rho (up, down):  0.000E+00 4.396E-04

     total cpu time spent up to now is        8.8 secs

     total energy              =    -328.72505637 Ry
     estimated scf accuracy    <       0.00000003 Ry

     total magnetization       =     2.44 Bohr mag/cell
     absolute magnetization    =     2.54 Bohr mag/cell

     iteration # 26     ecut=    25.00 Ry     beta= 0.20
     Davidson diagonalization with overlap

---- Real-time Memory Report at c_bands before calling an iterative solver
            83 MiB given to the printing process from OS
            88 MiB allocation reported by mallinfo(arena+hblkhd)
         13199 MiB available memory on the node where the printing process lives
------------------
     ethr =  1.97E-10,  avg # of iterations =  2.0

     negative rho (up, down):  0.000E+00 4.397E-04

     total cpu time spent up to now is        9.1 secs

     total energy              =    -328.72505867 Ry
     estimated scf accuracy    <       0.00000002 Ry

     total magnetization       =     2.44 Bohr mag/cell
     absolute magnetization    =     2.54 Bohr mag/cell

     iteration # 27     ecut=    25.00 Ry     beta= 0.20
     Davidson diagonalization with overlap

---- Real-time Memory Report at c_bands before calling an iterative solver
            83 MiB given to the printing process from OS
            88 MiB allocation reported by mallinfo(arena+hblkhd)
         13199 MiB available memory on the node where the printing process lives
------------------
     ethr =  1.11E-10,  avg # of iterations =  2.0

     negative rho (up, down):  0.000E+00 4.400E-04

     total cpu time spent up to now is        9.5 secs

     total energy              =    -328.72505935 Ry
     estimated scf accuracy    <       0.00000034 Ry

     total magnetization       =     2.44 Bohr mag/cell
     absolute magnetization    =     2.54 Bohr mag/cell

     iteration # 28     ecut=    25.00 Ry     beta= 0.20
     Davidson diagonalization with overlap

---- Real-time Memory Report at c_bands before calling an iterative solver
            83 MiB given to the printing process from OS
            88 MiB allocation reported by mallinfo(arena+hblkhd)
         13199 MiB available memory on the node where the printing process lives
------------------
     ethr =  1.11E-10,  avg # of iterations =  1.7

     negative rho (up, down):  0.000E+00 4.402E-04

     total cpu time spent up to now is        9.8 secs

     total energy              =    -328.72505979 Ry
     estimated scf accuracy    <       0.00000043 Ry

     total magnetization       =     2.44 Bohr mag/cell
     absolute magnetization    =     2.54 Bohr mag/cell

     iteration # 29     ecut=    25.00 Ry     beta= 0.20
     Davidson diagonalization with overlap

---- Real-time Memory Report at c_bands before calling an iterative solver
            83 MiB given to the printing process from OS
            88 MiB allocation reported by mallinfo(arena+hblkhd)
         13198 MiB available memory on the node where the printing process lives
------------------
     ethr =  1.11E-10,  avg # of iterations =  1.9

     negative rho (up, down):  0.000E+00 4.404E-04

     total cpu time spent up to now is       10.2 secs

     total energy              =    -328.72506008 Ry
     estimated scf accuracy    <       0.00000032 Ry

     total magnetization       =     2.44 Bohr mag/cell
     absolute magnetization    =     2.54 Bohr mag/cell

     iteration # 30     ecut=    25.00 Ry     beta= 0.20
     Davidson diagonalization with overlap

---- Real-time Memory Report at c_bands before calling an iterative solver
            83 MiB given to the printing process from OS
            88 MiB allocation reported by mallinfo(arena+hblkhd)
         13199 MiB available memory on the node where the printing process lives
------------------
     ethr =  1.11E-10,  avg # of iterations =  2.0

     negative rho (up, down):  0.000E+00 4.407E-04

     total cpu time spent up to now is       10.5 secs

     total energy              =    -328.72505939 Ry
     estimated scf accuracy    <       0.00000014 Ry

     total magnetization       =     2.44 Bohr mag/cell
     absolute magnetization    =     2.54 Bohr mag/cell

     iteration # 31     ecut=    25.00 Ry     beta= 0.20
     Davidson diagonalization with overlap

---- Real-time Memory Report at c_bands before calling an iterative solver
            83 MiB given to the printing process from OS
            88 MiB allocation reported by mallinfo(arena+hblkhd)
         13177 MiB available memory on the node where the printing process lives
------------------
     ethr =  1.11E-10,  avg # of iterations =  2.0

     negative rho (up, down):  0.000E+00 4.408E-04

     total cpu time spent up to now is       10.9 secs

     total energy              =    -328.72506019 Ry
     estimated scf accuracy    <       0.00000004 Ry

     total magnetization       =     2.44 Bohr mag/cell
     absolute magnetization    =     2.54 Bohr mag/cell

     iteration # 32     ecut=    25.00 Ry     beta= 0.20
     Davidson diagonalization with overlap

---- Real-time Memory Report at c_bands before calling an iterative solver
            83 MiB given to the printing process from OS
            88 MiB allocation reported by mallinfo(arena+hblkhd)
         13200 MiB available memory on the node where the printing process lives
------------------
     ethr =  1.11E-10,  avg # of iterations =  1.5

     negative rho (up, down):  0.000E+00 4.411E-04
 
     Magnetic moment per site  (integrated on atomic sphere of radius R)
     atom   1 (R=0.357)  charge= 14.5869  magn=  2.4736

     total cpu time spent up to now is       11.2 secs

     End of self-consistent calculation

 ------ SPIN UP ------------


          k = 0.0000 0.0000 0.1250 (   169 PWs)   bands (ev):

   -70.5473 -35.6320 -35.6320 -35.5238  10.3420  15.3325  15.3325  15.4024
    16.1618  16.3569  40.2653  41.7431

     occupation numbers 
     1.0000   1.0000   1.0000   1.0000   1.0000   1.0000   1.0000   1.0000
     1.0000   1.0000   0.0000   0.0000

          k = 0.0000-0.1250 0.2500 (   168 PWs)   bands (ev):

   -70.5314 -35.7274 -35.6143 -35.5987  11.6901  15.0751  15.2918  15.9809
    16.0144  16.4503  36.6612  40.0015

     occupation numbers 
     1.0000   1.0000   1.0000   1.0000   1.0000   1.0000   1.0000   1.0000
     1.0000   1.0000   0.0000   0.0000

          k = 0.0000-0.2500 0.3750 (   169 PWs)   bands (ev):

   -70.5110 -35.8966 -35.6644 -35.6275  13.0389  14.6967  15.6240  16.3245
    16.9379  16.9693  31.7110  37.9647

     occupation numbers 
     1.0000   1.0000   1.0000   1.0000   1.0000   1.0000   1.0000   1.0000
     1.0000   1.0000   0.0000   0.0000

          k = 0.0000-0.3750 0.5000 (   168 PWs)   bands (ev):

   -70.4813 -35.9247 -35.7436 -35.6321  13.0434  14.4429  16.1026  16.3881
    17.7097  20.1212  26.6768  36.7778

     occupation numbers 
     1.0000   1.0000   1.0000   1.0000   1.0000   1.0000   1.0000   1.0000
     0.6772   0.0000   0.0000   0.0000

          k =-0.1250 0.1250 0.1250 (   171 PWs)   bands (ev):

   -70.5564 -35.6926 -35.6247 -35.6247  11.0469  15.1326  15.1326  15.9272
    16.2395  16.2395  38.8286  38.8286

     occupation numbers 
     1.0000   1.0000   1.0000   1.0000   1.0000   1.0000   1.0000   1.0000
     1.0000   1.0000   0.0000   0.0000

          k =-0.1250-0.1250 0.3750 (   167 PWs)   bands (ev):

   -70.5057 -35.8074 -35.6929 -35.6018  13.1176  14.8419  15.1742  15.9279
    16.6005  17.1499  34.1809  36.0942

     occupation numbers 
     1.0000   1.0000   1.0000   1.0000   1.0000   1.0000   1.0000   1.0000
     1.0000   1.0000   0.0000   0.0000

          k =-0.1250-0.2500 0.5000 (   170 PWs)   bands (ev):

   -70.4987 -35.9747 -35.7150 -35.6632  13.5983  14.6094  15.3664  16.2552
    17.0642  19.5744  29.6836  33.7527

     occupation numbers 
     1.0000   1.0000   1.0000   1.0000   1.0000   1.0000   1.0000   1.0000
     1.0000   0.0000   0.0000   0.0000

          k =-0.1250 0.6250-0.3750 (   170 PWs)   bands (ev):

   -70.4872 -35.9427 -35.7994 -35.6788  13.4510  14.5986  15.4844  16.3239
    17.4559  22.8081  25.6246  33.1523

     occupation numbers 
     1.0000   1.0000   1.0000   1.0000   1.0000   1.0000   1.0000   1.0000
     1.0229   0.0000   0.0000   0.0000

          k =-0.2500 0.2500 0.1250 (   167 PWs)   bands (ev):

   -70.5149 -35.8109 -35.6300 -35.5991  12.7145  14.7493  15.0624  16.2217
    16.3560  17.0023  34.3802  37.0614

     occupation numbers 
     1.0000   1.0000   1.0000   1.0000   1.0000   1.0000   1.0000   1.0000
     1.0000   1.0000   0.0000   0.0000

          k =-0.2500 0.7500-0.3750 (   167 PWs)   bands (ev):

   -70.4633 -35.8629 -35.8014 -35.6737  14.1480  14.3879  14.9810  16.5741
    17.0471  23.5653  28.1318  29.0033

     occupation numbers 
     1.0000   1.0000   1.0000   1.0000   1.0000   1.0000   1.0000   1.0000
     1.0000   0.0000   0.0000   0.0000

          k =-0.3750 0.3750 0.1250 (   170 PWs)   bands (ev):

   -70.5082 -35.9800 -35.7155 -35.6263  13.2683  14.4229  16.2743  16.4347
    16.5068  18.9256  29.1937  35.7229

     occupation numbers 
     1.0000   1.0000   1.0000   1.0000   1.0000   1.0000   1.0000   1.0000
     1.0000   0.0000   0.0000   0.0000

          k =-0.3750 0.2500 0.2500 (   170 PWs)   bands (ev):

   -70.5140 -35.9648 -35.6897 -35.6518  13.8796  14.5391  14.9914  16.3081
    16.4925  18.9482  32.1076  33.2099

     occupation numbers 
     1.0000   1.0000   1.0000   1.0000   1.0000   1.0000   1.0000   1.0000
     1.0000   0.0000   0.0000   0.0000

          k = 0.5000-0.5000 0.1250 (   170 PWs)   bands (ev):

   -70.4953 -35.9377 -35.7699 -35.6965  13.1477  14.2984  16.4391  16.4665
    17.2050  21.7174  25.4073  35.1857

     occupation numbers 
     1.0000   1.0000   1.0000   1.0000   1.0000   1.0000   1.0000   1.0000
     1.0000   0.0000   0.0000   0.0000

          k = 0.5000-0.6250 0.2500 (   167 PWs)   bands (ev):

   -70.4813 -35.9024 -35.7495 -35.6712  13.8323  14.4174  15.7429  16.4555
    16.6578  22.3332  27.4961  31.6934

     occupation numbers 
     1.0000   1.0000   1.0000   1.0000   1.0000   1.0000   1.0000   1.0000
     1.0000   0.0000   0.0000   0.0000

          k = 0.3750-0.6250 0.3750 (   161 PWs)   bands (ev):

   -70.4463 -35.7664 -35.7664 -35.6840  14.0599  14.9983  14.9983  16.6004
    16.6004  26.2883  26.2883  27.8835

     occupation numbers 
     1.0000   1.0000   1.0000   1.0000   1.0000   1.0000   1.0000   1.0000
     1.0000   0.0000   0.0000   0.0000

          k = 0.0000 0.0000 0.3750 (   164 PWs)   bands (ev):

   -70.4923 -35.7444 -35.6123 -35.6123  12.8266  15.2270  15.5234  15.5234
    16.0023  16.9144  35.9136  39.0169

     occupation numbers 
     1.0000   1.0000   1.0000   1.0000   1.0000   1.0000   1.0000   1.0000
     1.0000   1.0000   0.0000   0.0000

          k = 0.0000-0.1250 0.5000 (   169 PWs)   bands (ev):

   -70.4929 -35.8830 -35.7002 -35.6987  13.7488  14.6174  15.3862  15.9942
    16.8599  18.3478  32.5974  36.3373

     occupation numbers 
     1.0000   1.0000   1.0000   1.0000   1.0000   1.0000   1.0000   1.0000
     1.0000   0.0000   0.0000   0.0000

          k = 0.0000-0.2500 0.6250 (   171 PWs)   bands (ev):

   -70.4796 -35.9474 -35.7943 -35.6984  13.5306  14.7476  15.1958  16.1341
    17.6331  21.9948  27.4657  35.2582

     occupation numbers 
     1.0000   1.0000   1.0000   1.0000   1.0000   1.0000   1.0000   1.0000
     1.0066   0.0000   0.0000   0.0000

          k =-0.1250-0.1250 0.6250 (   171 PWs)   bands (ev):

   -70.4720 -35.9274 -35.7892 -35.7049  13.9903  14.0346  15.4610  16.3980
    17.2460  21.4448  30.8087  31.6853

     occupation numbers 
     1.0000   1.0000   1.0000   1.0000   1.0000   1.0000   1.0000   1.0000
     1.0000   0.0000   0.0000   0.0000

          k =-0.1250 0.7500-0.2500 (   163 PWs)   bands (ev):

   -70.4181 -35.8187 -35.7750 -35.6585  13.7317  14.1802  15.2861  16.6809
    17.4917  25.4214  26.6926  30.7534

     occupation numbers 
     1.0000   1.0000   1.0000   1.0000   1.0000   1.0000   1.0000   1.0000
     1.0432   0.0000   0.0000   0.0000

          k = 0.6250-0.6250 0.3750 (   165 PWs)   bands (ev):

   -70.4734 -35.8640 -35.6920 -35.6920  14.4486  14.4486  15.1069  16.4698
    16.4698  22.0730  30.7070  30.7070

     occupation numbers 
     1.0000   1.0000   1.0000   1.0000   1.0000   1.0000   1.0000   1.0000
     1.0000   0.0000   0.0000   0.0000

          k = 0.5000-0.5000 0.3750 (   162 PWs)   bands (ev):

   -70.4557 -35.8035 -35.7689 -35.6564  14.4470  14.4619  15.3706  16.4928
    16.5137  25.5623  26.7428  30.2510

     occupation numbers 
     1.0000   1.0000   1.0000   1.0000   1.0000   1.0000   1.0000   1.0000
     1.0000   0.0000   0.0000   0.0000

          k = 0.0000 0.0000 0.6250 (   168 PWs)   bands (ev):

   -70.4611 -35.8406 -35.7524 -35.7524  13.8530  13.8675  16.2946  16.2946
    16.8743  20.5993  33.5034  34.8454

     occupation numbers 
     1.0000   1.0000   1.0000   1.0000   1.0000   1.0000   1.0000   1.0000
     1.0000   0.0000   0.0000   0.0000

          k = 0.0000-0.1250 0.7500 (   168 PWs)   bands (ev):

   -70.4261 -35.8690 -35.8189 -35.7263  13.3892  13.6020  16.4102  16.6857
    17.5354  24.5595  29.5107  33.2448

     occupation numbers 
     1.0000   1.0000   1.0000   1.0000   1.0000   1.0000   1.0000   1.0000
     1.0722   0.0000   0.0000   0.0000

          k =-0.1250 0.8750-0.1250 (   167 PWs)   bands (ev):

   -70.4113 -35.8368 -35.8368 -35.7540  13.2496  13.2496  16.5246  17.4206
    17.4206  28.5311  28.5311  29.4316

     occupation numbers 
     1.0000   1.0000   1.0000   1.0000   1.0000   1.0000   1.0000   1.0104
     1.0104   0.0000   0.0000   0.0000

          k = 0.0000 0.0000 0.8750 (   172 PWs)   bands (ev):

   -70.4323 -35.9069 -35.8563 -35.8563  12.9322  12.9800  17.3719  17.3719
    17.5036  27.9313  31.5027  31.5027

     occupation numbers 
     1.0000   1.0000   1.0000   1.0000   1.0000   1.0000   1.0027   1.0027
     1.0512   0.0000   0.0000   0.0000

 ------ SPIN DOWN ----------


          k = 0.0000 0.0000 0.1250 (   169 PWs)   bands (ev):

   -67.6980 -32.8270 -32.8270 -32.7248  10.5861  17.3587  17.3587  17.4480
    19.3585  19.6164  40.3735  41.7294

     occupation numbers 
     1.0000   1.0000   1.0000   1.0000   1.0000   1.0018   1.0018   1.0194
     0.0000   0.0000   0.0000   0.0000

          k = 0.0000-0.1250 0.2500 (   168 PWs)   bands (ev):

   -67.6799 -32.9384 -32.8103 -32.8001  11.9724  17.0501  17.3151  18.1165
    18.9924  19.7193  37.1339  40.1675

     occupation numbers 
     1.0000   1.0000   1.0000   1.0000   1.0000   1.0000   1.0004   0.0000
     0.0000   0.0000   0.0000   0.0000

          k = 0.0000-0.2500 0.3750 (   169 PWs)   bands (ev):

   -67.6576 -33.1257 -32.8701 -32.8231  13.8794  16.6008  17.5432  19.0063
    19.1797  19.8805  32.4805  38.1228

     occupation numbers 
     1.0000   1.0000   1.0000   1.0000   1.0000   1.0000   1.0764   0.0000
     0.0000   0.0000   0.0000   0.0000

          k = 0.0000-0.3750 0.5000 (   168 PWs)   bands (ev):

   -67.6270 -33.1702 -32.9516 -32.8273  14.5324  16.3016  18.8455  19.2400
    20.0181  21.0467  27.8412  36.8913

     occupation numbers 
     1.0000   1.0000   1.0000   1.0000   1.0000   1.0000   0.0000   0.0000
     0.0000   0.0000   0.0000   0.0000

          k =-0.1250 0.1250 0.1250 (   171 PWs)   bands (ev):

   -67.7055 -32.8990 -32.8196 -32.8196  11.2992  17.1352  17.1352  18.0062
    19.4396  19.4396  39.1089  39.1089

     occupation numbers 
     1.0000   1.0000   1.0000   1.0000   1.0000   1.0000   1.0000   0.0009
     0.0000   0.0000   0.0000   0.0000

          k =-0.1250-0.1250 0.3750 (   167 PWs)   bands (ev):

   -67.6528 -33.0307 -32.8965 -32.8037  13.6588  16.9684  17.0332  18.6741
    18.9876  20.0023  34.8671  36.5219

     occupation numbers 
     1.0000   1.0000   1.0000   1.0000   1.0000   1.0000   1.0000   0.0000
     0.0000   0.0000   0.0000   0.0000

          k =-0.1250-0.2500 0.5000 (   170 PWs)   bands (ev):

   -67.6438 -33.2069 -32.9280 -32.8619  14.9882  16.5790  17.3657  18.8957
    19.6724  21.3049  30.5569  34.3036

     occupation numbers 
     1.0000   1.0000   1.0000   1.0000   1.0000   1.0000   1.0022   0.0000
     0.0000   0.0000   0.0000   0.0000

          k =-0.1250 0.6250-0.3750 (   170 PWs)   bands (ev):

   -67.6319 -33.1845 -33.0119 -32.8768  15.1109  16.4782  17.8462  19.0458
    19.8857  23.6851  26.9296  33.7152

     occupation numbers 
     1.0000   1.0000   1.0000   1.0000   1.0000   1.0000   0.0968   0.0000
     0.0000   0.0000   0.0000   0.0000

          k =-0.2500 0.2500 0.1250 (   167 PWs)   bands (ev):

   -67.6625 -33.0330 -32.8330 -32.7961  13.1296  16.6743  16.9707  19.0825
    19.2600  19.5960  34.9682  37.4048

     occupation numbers 
     1.0000   1.0000   1.0000   1.0000   1.0000   1.0000   1.0000   0.0000
     0.0000   0.0000   0.0000   0.0000

          k =-0.2500 0.7500-0.3750 (   167 PWs)   bands (ev):

   -67.6082 -33.1003 -33.0260 -32.8726  15.8268  16.4692  17.0523  19.1501
    19.6123  24.7222  29.0748  29.7779

     occupation numbers 
     1.0000   1.0000   1.0000   1.0000   1.0000   1.0000   1.0000   0.0000
     0.0000   0.0000   0.0000   0.0000

          k =-0.3750 0.3750 0.1250 (   170 PWs)   bands (ev):

   -67.6543 -33.2142 -32.9231 -32.8224  14.5425  16.2731  17.8507  19.3265
    19.7341  20.5498  30.0756  36.0115

     occupation numbers 
     1.0000   1.0000   1.0000   1.0000   1.0000   1.0000   0.0881   0.0000
     0.0000   0.0000   0.0000   0.0000

          k =-0.3750 0.2500 0.2500 (   170 PWs)   bands (ev):

   -67.6600 -33.1931 -32.8974 -32.8508  14.8679  16.4568  16.5787  19.3282
    19.7044  20.7547  32.7881  33.7448

     occupation numbers 
     1.0000   1.0000   1.0000   1.0000   1.0000   1.0000   1.0000   0.0000
     0.0000   0.0000   0.0000   0.0000

          k = 0.5000-0.5000 0.1250 (   170 PWs)   bands (ev):

   -67.6403 -33.1833 -32.9787 -32.8888  14.6770  16.1198  18.9894  19.3866
    19.7945  22.3048  26.7850  35.4355

     occupation numbers 
     1.0000   1.0000   1.0000   1.0000   1.0000   1.0000   0.0000   0.0000
     0.0000   0.0000   0.0000   0.0000

          k = 0.5000-0.6250 0.2500 (   167 PWs)   bands (ev):

   -67.6264 -33.1410 -32.9648 -32.8707  15.4103  16.2211  17.4610  19.4547
    19.7697  23.4481  28.4297  32.2733

     occupation numbers 
     1.0000   1.0000   1.0000   1.0000   1.0000   1.0000   1.0253   0.0000
     0.0000   0.0000   0.0000   0.0000

          k = 0.3750-0.6250 0.3750 (   161 PWs)   bands (ev):

   -67.5920 -32.9988 -32.9988 -32.8849  15.7184  16.7999  16.7999  19.6345
    19.6345  27.1160  27.1160  28.7898

     occupation numbers 
     1.0000   1.0000   1.0000   1.0000   1.0000   1.0000   1.0000   0.0000
     0.0000   0.0000   0.0000   0.0000

          k = 0.0000 0.0000 0.3750 (   164 PWs)   bands (ev):

   -67.6411 -32.9603 -32.8188 -32.8188  13.2244  17.5138  17.5138  18.0775
    18.1110  20.0747  36.5560  39.4397

     occupation numbers 
     1.0000   1.0000   1.0000   1.0000   1.0000   1.0582   1.0582   0.0000
     0.0000   0.0000   0.0000   0.0000

          k = 0.0000-0.1250 0.5000 (   169 PWs)   bands (ev):

   -67.6376 -33.1094 -32.9096 -32.9058  14.8419  17.0318  17.3508  18.2658
    19.0539  20.7227  33.4174  36.8614

     occupation numbers 
     1.0000   1.0000   1.0000   1.0000   1.0000   1.0000   1.0014   0.0000
     0.0000   0.0000   0.0000   0.0000

          k = 0.0000-0.2500 0.6250 (   171 PWs)   bands (ev):

   -67.6236 -33.1852 -33.0070 -32.9034  15.3358  17.0536  17.1287  18.5835
    19.9317  23.2590  28.5101  35.8944

     occupation numbers 
     1.0000   1.0000   1.0000   1.0000   1.0000   1.0000   1.0000   0.0000
     0.0000   0.0000   0.0000   0.0000

          k =-0.1250-0.1250 0.6250 (   171 PWs)   bands (ev):

   -67.6156 -33.1588 -33.0080 -32.9130  15.7880  16.3153  17.5066  18.6054
    19.5581  22.9127  31.7690  32.3013

     occupation numbers 
     1.0000   1.0000   1.0000   1.0000   1.0000   1.0000   1.0533   0.0000
     0.0000   0.0000   0.0000   0.0000

          k =-0.1250 0.7500-0.2500 (   163 PWs)   bands (ev):

   -67.5634 -33.0593 -33.0008 -32.8690  15.8457  16.4257  17.2084  18.9500
    19.8036  26.4158  27.7572  31.5079

     occupation numbers 
     1.0000   1.0000   1.0000   1.0000   1.0000   1.0000   1.0000   0.0000
     0.0000   0.0000   0.0000   0.0000

          k = 0.6250-0.6250 0.3750 (   165 PWs)   bands (ev):

   -67.6191 -33.1002 -32.9018 -32.9018  16.2074  16.2074  16.3550  19.7135
    19.7135  23.3172  31.3369  31.3369

     occupation numbers 
     1.0000   1.0000   1.0000   1.0000   1.0000   1.0000   1.0000   0.0000
     0.0000   0.0000   0.0000   0.0000

          k = 0.5000-0.5000 0.3750 (   162 PWs)   bands (ev):

   -67.6012 -33.0364 -32.9874 -32.8689  16.0887  16.1438  16.9728  19.7467
    19.8291  26.3112  27.6804  30.8499

     occupation numbers 
     1.0000   1.0000   1.0000   1.0000   1.0000   1.0000   1.0000   0.0000
     0.0000   0.0000   0.0000   0.0000

          k = 0.0000 0.0000 0.6250 (   168 PWs)   bands (ev):

   -67.6036 -33.0677 -32.9705 -32.9705  15.5996  16.3095  18.3415  18.3415
    19.0814  22.2081  34.6363  35.2858

     occupation numbers 
     1.0000   1.0000   1.0000   1.0000   1.0000   1.0000   0.0000   0.0000
     0.0000   0.0000   0.0000   0.0000

          k = 0.0000-0.1250 0.7500 (   168 PWs)   bands (ev):

   -67.5690 -33.1015 -33.0415 -32.9479  15.6001  15.7897  18.4908  18.8124
    19.8197  25.6037  30.3387  33.6118

     occupation numbers 
     1.0000   1.0000   1.0000   1.0000   1.0000   1.0000   0.0000   0.0000
     0.0000   0.0000   0.0000   0.0000

          k =-0.1250 0.8750-0.1250 (   167 PWs)   bands (ev):

   -67.5522 -33.0676 -33.0676 -32.9758  15.4597  15.4597  18.5930  19.6802
    19.6802  29.3927  29.3927  29.9866

     occupation numbers 
     1.0000   1.0000   1.0000   1.0000   1.0000   1.0000   0.0000   0.0000
     0.0000   0.0000   0.0000   0.0000

          k = 0.0000 0.0000 0.8750 (   172 PWs)   bands (ev):

   -67.5724 -33.1330 -33.0831 -33.0831  15.1357  15.1469  19.6147  19.6147
    19.7872  28.6314  31.7363  31.7363

     occupation numbers 
     1.0000   1.0000   1.0000   1.0000   1.0000   1.0000   0.0000   0.0000
     0.0000   0.0000   0.0000   0.0000

     the Fermi energy is    17.7608 ev

!    total energy              =    -328.72506084 Ry

     total all-electron energy =     -2545.021596 Ry
     estimated scf accuracy    <          5.0E-10 Ry
     smearing contrib. (-TS)   =       0.00031310 Ry
     internal energy E=F+TS    =    -328.72537394 Ry

     The total energy is F=E-TS. E is the sum of the following terms:
     one-electron contribution =    -112.89264830 Ry
     hartree contribution      =      66.88720144 Ry
     xc contribution           =     -34.79934810 Ry
     ewald contribution        =    -171.88999324 Ry
     one-center paw contrib.   =     -76.03058575 Ry
      -> PAW hartree energy AE =     219.37829486 Ry
      -> PAW hartree energy PS =    -218.63621041 Ry
      -> PAW xc energy AE      =    -111.62293249 Ry
      -> PAW xc energy PS      =      34.85026229 Ry
      -> total E_H with PAW    =      67.62928589 Ry
      -> total E_XC with PAW   =    -111.57201829 Ry

     total magnetization       =     2.44 Bohr mag/cell
     absolute magnetization    =     2.54 Bohr mag/cell

     convergence has been achieved in  32 iterations

     Writing all to output data dir ./tmp/fe.save/
 
     init_run     :      0.40s CPU      0.40s WALL (       1 calls)
     electrons    :     10.56s CPU     10.73s WALL (       1 calls)

     Called by init_run:
     wfcinit      :      0.05s CPU      0.05s WALL (       1 calls)
     wfcinit:atom :      0.00s CPU      0.00s WALL (      52 calls)
     wfcinit:wfcr :      0.05s CPU      0.05s WALL (      52 calls)
     potinit      :      0.19s CPU      0.19s WALL (       1 calls)
     hinit0       :      0.14s CPU      0.14s WALL (       1 calls)

     Called by electrons:
     c_bands      :      3.43s CPU      3.57s WALL (      32 calls)
     sum_band     :      1.00s CPU      1.00s WALL (      32 calls)
     v_of_rho     :      0.23s CPU      0.25s WALL (      33 calls)
     v_h          :      0.00s CPU      0.00s WALL (      33 calls)
     v_xc         :      0.22s CPU      0.25s WALL (      33 calls)
     newd         :      0.12s CPU      0.12s WALL (      33 calls)
     PAW_pot      :      5.92s CPU      5.92s WALL (      33 calls)
     mix_rho      :      0.02s CPU      0.02s WALL (      32 calls)

     Called by c_bands:
     init_us_2    :      0.09s CPU      0.09s WALL (    3380 calls)
     init_us_2:cp :      0.09s CPU      0.09s WALL (    3380 calls)
     cegterg      :      3.16s CPU      3.29s WALL (    1664 calls)

     Called by sum_band:
     sum_band:wei :      0.04s CPU      0.04s WALL (      32 calls)
     sum_band:loo :      0.68s CPU      0.68s WALL (      32 calls)
     sum_band:buf :      0.00s CPU      0.00s WALL (    1664 calls)
     sum_band:ini :      0.05s CPU      0.05s WALL (    1664 calls)
     sum_band:cal :      0.02s CPU      0.02s WALL (    1664 calls)
     sum_band:bec :      0.01s CPU      0.01s WALL (    1664 calls)
     addusdens    :      0.23s CPU      0.23s WALL (      32 calls)
     addusd:skk   :      0.00s CPU      0.00s WALL (      32 calls)
     addusd:dgemm :      0.04s CPU      0.04s WALL (      64 calls)
     addusd:qvan2 :      0.18s CPU      0.18s WALL (      64 calls)

     Called by *egterg:
     cdiaghg      :      0.40s CPU      0.41s WALL (    4216 calls)
     cegterg:over :      0.07s CPU      0.07s WALL (    2552 calls)
     cegterg:upda :      0.03s CPU      0.03s WALL (    2552 calls)
     cegterg:last :      0.05s CPU      0.05s WALL (    2423 calls)
     h_psi        :      2.53s CPU      2.63s WALL (    4268 calls)
     s_psi        :      0.04s CPU      0.04s WALL (    4268 calls)
     g_psi        :      0.01s CPU      0.01s WALL (    2552 calls)

     Called by h_psi:
     h_psi:calbec :      0.05s CPU      0.05s WALL (    4268 calls)
     vloc_psi     :      2.41s CPU      2.51s WALL (    4268 calls)
     add_vuspsi   :      0.04s CPU      0.05s WALL (    4268 calls)

     General routines
     calbec       :      0.07s CPU      0.07s WALL (    5932 calls)
     fft          :      0.07s CPU      0.07s WALL (     819 calls)
     ffts         :      0.00s CPU      0.00s WALL (     130 calls)
     fftw         :      2.77s CPU      2.86s WALL (  107554 calls)
     interpolate  :      0.01s CPU      0.01s WALL (      66 calls)
 
     Parallel routines

     PAW routines
     PAW_pot      :      5.92s CPU      5.92s WALL (      33 calls)
     PAW_symme    :      0.04s CPU      0.04s WALL (      65 calls)
 
     PWSCF        :     11.02s CPU     11.23s WALL

 
   This run was terminated on:  15:53:25  27Oct2023            

=------------------------------------------------------------------------------=
   JOB DONE.
=------------------------------------------------------------------------------=
