
     Program PWSCF v.7.0 starts on 28Oct2023 at  9: 9:34 

     This program is part of the open-source Quantum ESPRESSO suite
     for quantum simulation of materials; please cite
         "P. Giannozzi et al., J. Phys.:Condens. Matter 21 395502 (2009);
         "P. Giannozzi et al., J. Phys.:Condens. Matter 29 465901 (2017);
         "P. Giannozzi et al., J. Chem. Phys. 152 154105 (2020);
          URL http://www.quantum-espresso.org", 
     in publications or presentations arising from this work. More details at
     http://www.quantum-espresso.org/quote

     Parallel version (MPI), running on     2 processors

     MPI processes distributed on     1 nodes
     K-points division:     npool     =       2
     13130 MiB available memory on the printing compute node when the environment starts
 
     Reading input from espresso_pwscf.inp

     Current dimensions of program PWSCF are:
     Max number of different atomic species (ntypx) = 10
     Max number of k-points (npk) =  40000
     Max angular momentum in pseudopotentials (lmaxx) =  4
     file Fe.pbe-spn-kjpaw_psl.0.2.1.UPF: wavefunction(s)  3D renormalized

     Subspace diagonalization in iterative solution of the eigenvalue problem:
     a serial algorithm will be used

 
     G-vector sticks info
     --------------------
     sticks:   dense  smooth     PW     G-vecs:    dense   smooth      PW
     Sum         333     169     63                 3805     1409     321
 
     Using Slab Decomposition
 


     bravais-lattice index     =            3
     lattice parameter (alat)  =       5.4200  a.u.
     unit-cell volume          =      79.6100 (a.u.)^3
     number of atoms/cell      =            1
     number of atomic types    =            1
     number of electrons       =        16.00
     number of Kohn-Sham states=           12
     kinetic-energy cutoff     =      25.0000  Ry
     charge density cutoff     =     200.0000  Ry
     scf convergence threshold =      1.0E-08
     mixing beta               =       0.2000
     number of iterations used =            8  plain     mixing
     Exchange-correlation= SLA  PW   PBX  PBC
                           (   1   4   3   4   0   0   0)

     celldm(1)=   5.420000  celldm(2)=   0.000000  celldm(3)=   0.000000
     celldm(4)=   0.000000  celldm(5)=   0.000000  celldm(6)=   0.000000

     crystal axes: (cart. coord. in units of alat)
               a(1) = (   0.500000   0.500000   0.500000 )  
               a(2) = (  -0.500000   0.500000   0.500000 )  
               a(3) = (  -0.500000  -0.500000   0.500000 )  

     reciprocal axes: (cart. coord. in units 2 pi/alat)
               b(1) = (  1.000000  0.000000  1.000000 )  
               b(2) = ( -1.000000  1.000000  0.000000 )  
               b(3) = (  0.000000 -1.000000  1.000000 )  


     PseudoPot. # 1 for Fe read from file:
     ./Fe.pbe-spn-kjpaw_psl.0.2.1.UPF
     MD5 check sum: e86618425769142926afa95317d90200
     Pseudo is Projector augmented-wave + core cor, Zval = 16.0
     Generated using "atomic" code by A. Dal Corso  v.5.0.99 svn rev. 10869
     Shape of augmentation charge: PSQ
     Using radial grid of 1191 points,  6 beta functions with: 
                l(1) =   0
                l(2) =   0
                l(3) =   1
                l(4) =   1
                l(5) =   2
                l(6) =   2
     Q(r) pseudized with 0 coefficients 


     atomic species   valence    mass     pseudopotential
        Fe            16.00     1.00000     Fe( 1.00)

     Starting magnetic structure 
     atomic species   magnetization
        Fe           0.600

     48 Sym. Ops., with inversion, found


                                    s                        frac. trans.

      isym =  1     identity                                     

 cryst.   s( 1) = (     1          0          0      )
                  (     0          1          0      )
                  (     0          0          1      )

 cart.    s( 1) = (  1.0000000  0.0000000  0.0000000 )
                  (  0.0000000  1.0000000  0.0000000 )
                  (  0.0000000  0.0000000  1.0000000 )


      isym =  2     180 deg rotation - cart. axis [0,0,1]        

 cryst.   s( 2) = (     0          0          1      )
                  (     1         -1          1      )
                  (     1          0          0      )

 cart.    s( 2) = ( -1.0000000  0.0000000  0.0000000 )
                  (  0.0000000 -1.0000000  0.0000000 )
                  (  0.0000000  0.0000000  1.0000000 )


      isym =  3     180 deg rotation - cart. axis [0,1,0]        

 cryst.   s( 3) = (    -1          1         -1      )
                  (     0          0         -1      )
                  (     0         -1          0      )

 cart.    s( 3) = ( -1.0000000  0.0000000  0.0000000 )
                  (  0.0000000  1.0000000  0.0000000 )
                  (  0.0000000  0.0000000 -1.0000000 )


      isym =  4     180 deg rotation - cart. axis [1,0,0]        

 cryst.   s( 4) = (     0         -1          0      )
                  (    -1          0          0      )
                  (    -1          1         -1      )

 cart.    s( 4) = (  1.0000000  0.0000000  0.0000000 )
                  (  0.0000000 -1.0000000  0.0000000 )
                  (  0.0000000  0.0000000 -1.0000000 )


      isym =  5     180 deg rotation - cart. axis [1,1,0]        

 cryst.   s( 5) = (     0          0         -1      )
                  (     0         -1          0      )
                  (    -1          0          0      )

 cart.    s( 5) = (  0.0000000  1.0000000  0.0000000 )
                  (  1.0000000  0.0000000  0.0000000 )
                  (  0.0000000  0.0000000 -1.0000000 )


      isym =  6     180 deg rotation - cart. axis [1,-1,0]       

 cryst.   s( 6) = (    -1          0          0      )
                  (    -1          1         -1      )
                  (     0          0         -1      )

 cart.    s( 6) = (  0.0000000 -1.0000000  0.0000000 )
                  ( -1.0000000  0.0000000  0.0000000 )
                  (  0.0000000  0.0000000 -1.0000000 )


      isym =  7      90 deg rotation - cart. axis [0,0,-1]       

 cryst.   s( 7) = (     1         -1          1      )
                  (     1          0          0      )
                  (     0          1          0      )

 cart.    s( 7) = (  0.0000000  1.0000000  0.0000000 )
                  ( -1.0000000  0.0000000  0.0000000 )
                  (  0.0000000  0.0000000  1.0000000 )


      isym =  8      90 deg rotation - cart. axis [0,0,1]        

 cryst.   s( 8) = (     0          1          0      )
                  (     0          0          1      )
                  (     1         -1          1      )

 cart.    s( 8) = (  0.0000000 -1.0000000  0.0000000 )
                  (  1.0000000  0.0000000  0.0000000 )
                  (  0.0000000  0.0000000  1.0000000 )


      isym =  9     180 deg rotation - cart. axis [1,0,1]        

 cryst.   s( 9) = (     1         -1          1      )
                  (     0         -1          0      )
                  (     0          0         -1      )

 cart.    s( 9) = (  0.0000000  0.0000000  1.0000000 )
                  (  0.0000000 -1.0000000  0.0000000 )
                  (  1.0000000  0.0000000  0.0000000 )


      isym = 10     180 deg rotation - cart. axis [-1,0,1]       

 cryst.   s(10) = (    -1          0          0      )
                  (     0          0          1      )
                  (     0          1          0      )

 cart.    s(10) = (  0.0000000  0.0000000 -1.0000000 )
                  (  0.0000000 -1.0000000  0.0000000 )
                  ( -1.0000000  0.0000000  0.0000000 )


      isym = 11      90 deg rotation - cart. axis [0,1,0]        

 cryst.   s(11) = (     0          0         -1      )
                  (     1          0          0      )
                  (     1         -1          1      )

 cart.    s(11) = (  0.0000000  0.0000000  1.0000000 )
                  (  0.0000000  1.0000000  0.0000000 )
                  ( -1.0000000  0.0000000  0.0000000 )


      isym = 12      90 deg rotation - cart. axis [0,-1,0]       

 cryst.   s(12) = (     0          1          0      )
                  (    -1          1         -1      )
                  (    -1          0          0      )

 cart.    s(12) = (  0.0000000  0.0000000 -1.0000000 )
                  (  0.0000000  1.0000000  0.0000000 )
                  (  1.0000000  0.0000000  0.0000000 )


      isym = 13     180 deg rotation - cart. axis [0,1,1]        

 cryst.   s(13) = (     0          1          0      )
                  (     1          0          0      )
                  (     0          0         -1      )

 cart.    s(13) = ( -1.0000000  0.0000000  0.0000000 )
                  (  0.0000000  0.0000000  1.0000000 )
                  (  0.0000000  1.0000000  0.0000000 )


      isym = 14     180 deg rotation - cart. axis [0,1,-1]       

 cryst.   s(14) = (    -1          0          0      )
                  (     0         -1          0      )
                  (     1         -1          1      )

 cart.    s(14) = ( -1.0000000  0.0000000  0.0000000 )
                  (  0.0000000  0.0000000 -1.0000000 )
                  (  0.0000000 -1.0000000  0.0000000 )


      isym = 15      90 deg rotation - cart. axis [-1,0,0]       

 cryst.   s(15) = (     0          0         -1      )
                  (    -1          1         -1      )
                  (     0          1          0      )

 cart.    s(15) = (  1.0000000  0.0000000  0.0000000 )
                  (  0.0000000  0.0000000  1.0000000 )
                  (  0.0000000 -1.0000000  0.0000000 )


      isym = 16      90 deg rotation - cart. axis [1,0,0]        

 cryst.   s(16) = (     1         -1          1      )
                  (     0          0          1      )
                  (    -1          0          0      )

 cart.    s(16) = (  1.0000000  0.0000000  0.0000000 )
                  (  0.0000000  0.0000000 -1.0000000 )
                  (  0.0000000  1.0000000  0.0000000 )


      isym = 17     120 deg rotation - cart. axis [-1,-1,-1]     

 cryst.   s(17) = (     1          0          0      )
                  (     0          0         -1      )
                  (    -1          1         -1      )

 cart.    s(17) = (  0.0000000  1.0000000  0.0000000 )
                  (  0.0000000  0.0000000  1.0000000 )
                  (  1.0000000  0.0000000  0.0000000 )


      isym = 18     120 deg rotation - cart. axis [-1,1,1]       

 cryst.   s(18) = (    -1          1         -1      )
                  (     0          1          0      )
                  (     1          0          0      )

 cart.    s(18) = (  0.0000000 -1.0000000  0.0000000 )
                  (  0.0000000  0.0000000  1.0000000 )
                  ( -1.0000000  0.0000000  0.0000000 )


      isym = 19     120 deg rotation - cart. axis [1,1,-1]       

 cryst.   s(19) = (     0         -1          0      )
                  (     1         -1          1      )
                  (     0          0          1      )

 cart.    s(19) = (  0.0000000  1.0000000  0.0000000 )
                  (  0.0000000  0.0000000 -1.0000000 )
                  ( -1.0000000  0.0000000  0.0000000 )


      isym = 20     120 deg rotation - cart. axis [1,-1,1]       

 cryst.   s(20) = (     0          0          1      )
                  (    -1          0          0      )
                  (     0         -1          0      )

 cart.    s(20) = (  0.0000000 -1.0000000  0.0000000 )
                  (  0.0000000  0.0000000 -1.0000000 )
                  (  1.0000000  0.0000000  0.0000000 )


      isym = 21     120 deg rotation - cart. axis [1,1,1]        

 cryst.   s(21) = (     1          0          0      )
                  (     1         -1          1      )
                  (     0         -1          0      )

 cart.    s(21) = (  0.0000000  0.0000000  1.0000000 )
                  (  1.0000000  0.0000000  0.0000000 )
                  (  0.0000000  1.0000000  0.0000000 )


      isym = 22     120 deg rotation - cart. axis [-1,1,-1]      

 cryst.   s(22) = (     0         -1          0      )
                  (     0          0         -1      )
                  (     1          0          0      )

 cart.    s(22) = (  0.0000000  0.0000000  1.0000000 )
                  ( -1.0000000  0.0000000  0.0000000 )
                  (  0.0000000 -1.0000000  0.0000000 )


      isym = 23     120 deg rotation - cart. axis [1,-1,-1]      

 cryst.   s(23) = (     0          0          1      )
                  (     0          1          0      )
                  (    -1          1         -1      )

 cart.    s(23) = (  0.0000000  0.0000000 -1.0000000 )
                  ( -1.0000000  0.0000000  0.0000000 )
                  (  0.0000000  1.0000000  0.0000000 )


      isym = 24     120 deg rotation - cart. axis [-1,-1,1]      

 cryst.   s(24) = (    -1          1         -1      )
                  (    -1          0          0      )
                  (     0          0          1      )

 cart.    s(24) = (  0.0000000  0.0000000 -1.0000000 )
                  (  1.0000000  0.0000000  0.0000000 )
                  (  0.0000000 -1.0000000  0.0000000 )


      isym = 25     inversion                                    

 cryst.   s(25) = (    -1          0          0      )
                  (     0         -1          0      )
                  (     0          0         -1      )

 cart.    s(25) = ( -1.0000000  0.0000000  0.0000000 )
                  (  0.0000000 -1.0000000  0.0000000 )
                  (  0.0000000  0.0000000 -1.0000000 )


      isym = 26     inv. 180 deg rotation - cart. axis [0,0,1]   

 cryst.   s(26) = (     0          0         -1      )
                  (    -1          1         -1      )
                  (    -1          0          0      )

 cart.    s(26) = (  1.0000000  0.0000000  0.0000000 )
                  (  0.0000000  1.0000000  0.0000000 )
                  (  0.0000000  0.0000000 -1.0000000 )


      isym = 27     inv. 180 deg rotation - cart. axis [0,1,0]   

 cryst.   s(27) = (     1         -1          1      )
                  (     0          0          1      )
                  (     0          1          0      )

 cart.    s(27) = (  1.0000000  0.0000000  0.0000000 )
                  (  0.0000000 -1.0000000  0.0000000 )
                  (  0.0000000  0.0000000  1.0000000 )


      isym = 28     inv. 180 deg rotation - cart. axis [1,0,0]   

 cryst.   s(28) = (     0          1          0      )
                  (     1          0          0      )
                  (     1         -1          1      )

 cart.    s(28) = ( -1.0000000  0.0000000  0.0000000 )
                  (  0.0000000  1.0000000  0.0000000 )
                  (  0.0000000  0.0000000  1.0000000 )


      isym = 29     inv. 180 deg rotation - cart. axis [1,1,0]   

 cryst.   s(29) = (     0          0          1      )
                  (     0          1          0      )
                  (     1          0          0      )

 cart.    s(29) = (  0.0000000 -1.0000000  0.0000000 )
                  ( -1.0000000  0.0000000  0.0000000 )
                  (  0.0000000  0.0000000  1.0000000 )


      isym = 30     inv. 180 deg rotation - cart. axis [1,-1,0]  

 cryst.   s(30) = (     1          0          0      )
                  (     1         -1          1      )
                  (     0          0          1      )

 cart.    s(30) = (  0.0000000  1.0000000  0.0000000 )
                  (  1.0000000  0.0000000  0.0000000 )
                  (  0.0000000  0.0000000  1.0000000 )


      isym = 31     inv.  90 deg rotation - cart. axis [0,0,-1]  

 cryst.   s(31) = (    -1          1         -1      )
                  (    -1          0          0      )
                  (     0         -1          0      )

 cart.    s(31) = (  0.0000000 -1.0000000  0.0000000 )
                  (  1.0000000  0.0000000  0.0000000 )
                  (  0.0000000  0.0000000 -1.0000000 )


      isym = 32     inv.  90 deg rotation - cart. axis [0,0,1]   

 cryst.   s(32) = (     0         -1          0      )
                  (     0          0         -1      )
                  (    -1          1         -1      )

 cart.    s(32) = (  0.0000000  1.0000000  0.0000000 )
                  ( -1.0000000  0.0000000  0.0000000 )
                  (  0.0000000  0.0000000 -1.0000000 )


      isym = 33     inv. 180 deg rotation - cart. axis [1,0,1]   

 cryst.   s(33) = (    -1          1         -1      )
                  (     0          1          0      )
                  (     0          0          1      )

 cart.    s(33) = (  0.0000000  0.0000000 -1.0000000 )
                  (  0.0000000  1.0000000  0.0000000 )
                  ( -1.0000000  0.0000000  0.0000000 )


      isym = 34     inv. 180 deg rotation - cart. axis [-1,0,1]  

 cryst.   s(34) = (     1          0          0      )
                  (     0          0         -1      )
                  (     0         -1          0      )

 cart.    s(34) = (  0.0000000  0.0000000  1.0000000 )
                  (  0.0000000  1.0000000  0.0000000 )
                  (  1.0000000  0.0000000  0.0000000 )


      isym = 35     inv.  90 deg rotation - cart. axis [0,1,0]   

 cryst.   s(35) = (     0          0          1      )
                  (    -1          0          0      )
                  (    -1          1         -1      )

 cart.    s(35) = (  0.0000000  0.0000000 -1.0000000 )
                  (  0.0000000 -1.0000000  0.0000000 )
                  (  1.0000000  0.0000000  0.0000000 )


      isym = 36     inv.  90 deg rotation - cart. axis [0,-1,0]  

 cryst.   s(36) = (     0         -1          0      )
                  (     1         -1          1      )
                  (     1          0          0      )

 cart.    s(36) = (  0.0000000  0.0000000  1.0000000 )
                  (  0.0000000 -1.0000000  0.0000000 )
                  ( -1.0000000  0.0000000  0.0000000 )


      isym = 37     inv. 180 deg rotation - cart. axis [0,1,1]   

 cryst.   s(37) = (     0         -1          0      )
                  (    -1          0          0      )
                  (     0          0          1      )

 cart.    s(37) = (  1.0000000  0.0000000  0.0000000 )
                  (  0.0000000  0.0000000 -1.0000000 )
                  (  0.0000000 -1.0000000  0.0000000 )


      isym = 38     inv. 180 deg rotation - cart. axis [0,1,-1]  

 cryst.   s(38) = (     1          0          0      )
                  (     0          1          0      )
                  (    -1          1         -1      )

 cart.    s(38) = (  1.0000000  0.0000000  0.0000000 )
                  (  0.0000000  0.0000000  1.0000000 )
                  (  0.0000000  1.0000000  0.0000000 )


      isym = 39     inv.  90 deg rotation - cart. axis [-1,0,0]  

 cryst.   s(39) = (     0          0          1      )
                  (     1         -1          1      )
                  (     0         -1          0      )

 cart.    s(39) = ( -1.0000000  0.0000000  0.0000000 )
                  (  0.0000000  0.0000000 -1.0000000 )
                  (  0.0000000  1.0000000  0.0000000 )


      isym = 40     inv.  90 deg rotation - cart. axis [1,0,0]   

 cryst.   s(40) = (    -1          1         -1      )
                  (     0          0         -1      )
                  (     1          0          0      )

 cart.    s(40) = ( -1.0000000  0.0000000  0.0000000 )
                  (  0.0000000  0.0000000  1.0000000 )
                  (  0.0000000 -1.0000000  0.0000000 )


      isym = 41     inv. 120 deg rotation - cart. axis [-1,-1,-1]

 cryst.   s(41) = (    -1          0          0      )
                  (     0          0          1      )
                  (     1         -1          1      )

 cart.    s(41) = (  0.0000000 -1.0000000  0.0000000 )
                  (  0.0000000  0.0000000 -1.0000000 )
                  ( -1.0000000  0.0000000  0.0000000 )


      isym = 42     inv. 120 deg rotation - cart. axis [-1,1,1]  

 cryst.   s(42) = (     1         -1          1      )
                  (     0         -1          0      )
                  (    -1          0          0      )

 cart.    s(42) = (  0.0000000  1.0000000  0.0000000 )
                  (  0.0000000  0.0000000 -1.0000000 )
                  (  1.0000000  0.0000000  0.0000000 )


      isym = 43     inv. 120 deg rotation - cart. axis [1,1,-1]  

 cryst.   s(43) = (     0          1          0      )
                  (    -1          1         -1      )
                  (     0          0         -1      )

 cart.    s(43) = (  0.0000000 -1.0000000  0.0000000 )
                  (  0.0000000  0.0000000  1.0000000 )
                  (  1.0000000  0.0000000  0.0000000 )


      isym = 44     inv. 120 deg rotation - cart. axis [1,-1,1]  

 cryst.   s(44) = (     0          0         -1      )
                  (     1          0          0      )
                  (     0          1          0      )

 cart.    s(44) = (  0.0000000  1.0000000  0.0000000 )
                  (  0.0000000  0.0000000  1.0000000 )
                  ( -1.0000000  0.0000000  0.0000000 )


      isym = 45     inv. 120 deg rotation - cart. axis [1,1,1]   

 cryst.   s(45) = (    -1          0          0      )
                  (    -1          1         -1      )
                  (     0          1          0      )

 cart.    s(45) = (  0.0000000  0.0000000 -1.0000000 )
                  ( -1.0000000  0.0000000  0.0000000 )
                  (  0.0000000 -1.0000000  0.0000000 )


      isym = 46     inv. 120 deg rotation - cart. axis [-1,1,-1] 

 cryst.   s(46) = (     0          1          0      )
                  (     0          0          1      )
                  (    -1          0          0      )

 cart.    s(46) = (  0.0000000  0.0000000 -1.0000000 )
                  (  1.0000000  0.0000000  0.0000000 )
                  (  0.0000000  1.0000000  0.0000000 )


      isym = 47     inv. 120 deg rotation - cart. axis [1,-1,-1] 

 cryst.   s(47) = (     0          0         -1      )
                  (     0         -1          0      )
                  (     1         -1          1      )

 cart.    s(47) = (  0.0000000  0.0000000  1.0000000 )
                  (  1.0000000  0.0000000  0.0000000 )
                  (  0.0000000 -1.0000000  0.0000000 )


      isym = 48     inv. 120 deg rotation - cart. axis [-1,-1,1] 

 cryst.   s(48) = (     1         -1          1      )
                  (     1          0          0      )
                  (     0          0         -1      )

 cart.    s(48) = (  0.0000000  0.0000000  1.0000000 )
                  ( -1.0000000  0.0000000  0.0000000 )
                  (  0.0000000  1.0000000  0.0000000 )


     point group O_h (m-3m) 
     there are 10 classes
     the character table:

       E     8C3   3C2   6C4   6C2'  i     8S6   3s_h  6S4   6s_d 
A_1g   1.00  1.00  1.00  1.00  1.00  1.00  1.00  1.00  1.00  1.00
A_2g   1.00  1.00  1.00 -1.00 -1.00  1.00  1.00  1.00 -1.00 -1.00
E_g    2.00 -1.00  2.00  0.00  0.00  2.00 -1.00  2.00  0.00  0.00
T_1g   3.00  0.00 -1.00  1.00 -1.00  3.00  0.00 -1.00  1.00 -1.00
T_2g   3.00  0.00 -1.00 -1.00  1.00  3.00  0.00 -1.00 -1.00  1.00
A_1u   1.00  1.00  1.00  1.00  1.00 -1.00 -1.00 -1.00 -1.00 -1.00
A_2u   1.00  1.00  1.00 -1.00 -1.00 -1.00 -1.00 -1.00  1.00  1.00
E_u    2.00 -1.00  2.00  0.00  0.00 -2.00  1.00 -2.00  0.00  0.00
T_1u   3.00  0.00 -1.00  1.00 -1.00 -3.00  0.00  1.00 -1.00  1.00
T_2u   3.00  0.00 -1.00 -1.00  1.00 -3.00  0.00  1.00  1.00 -1.00

     the symmetry operations in each class and the name of the first element:

     E        1
          identity                                               
     8C3     17   19   20   18   24   21   22   23
          120 deg rotation - cart. axis [-1,-1,-1]               
     3C2      2    4    3
          180 deg rotation - cart. axis [0,0,1]                  
     6C4      7    8   15   16   12   11
           90 deg rotation - cart. axis [0,0,-1]                 
     6C2'     5    6   14   13   10    9
          180 deg rotation - cart. axis [1,1,0]                  
     i       25
          inversion                                              
     8S6     41   43   44   42   48   45   46   47
          inv. 120 deg rotation - cart. axis [-1,-1,-1]          
     3s_h    26   28   27
          inv. 180 deg rotation - cart. axis [0,0,1]             
     6S4     31   32   39   40   36   35
          inv.  90 deg rotation - cart. axis [0,0,-1]            
     6s_d    29   30   38   37   34   33
          inv. 180 deg rotation - cart. axis [1,1,0]             

   Cartesian axes

     site n.     atom                  positions (alat units)
         1           Fe  tau(   1) = (   0.0000000   0.0000000   0.0000000  )

   Crystallographic axes

     site n.     atom                  positions (cryst. coord.)
         1           Fe  tau(   1) = (  0.0000000  0.0000000  0.0000000  )

     number of k points=   145  Marzari-Vanderbilt smearing, width (Ry)=  0.0100
                       cart. coord. in units 2pi/alat
        k(    1) = (   0.0000000   0.0000000   0.0000000), wk =   0.0002441
        k(    2) = (   0.0000000  -0.0625000   0.0625000), wk =   0.0029297
        k(    3) = (   0.0000000  -0.1250000   0.1250000), wk =   0.0029297
        k(    4) = (   0.0000000  -0.1875000   0.1875000), wk =   0.0029297
        k(    5) = (   0.0000000  -0.2500000   0.2500000), wk =   0.0029297
        k(    6) = (   0.0000000  -0.3125000   0.3125000), wk =   0.0029297
        k(    7) = (   0.0000000  -0.3750000   0.3750000), wk =   0.0029297
        k(    8) = (   0.0000000  -0.4375000   0.4375000), wk =   0.0029297
        k(    9) = (   0.0000000   0.5000000  -0.5000000), wk =   0.0014648
        k(   10) = (  -0.0625000  -0.0625000   0.1250000), wk =   0.0058594
        k(   11) = (  -0.0625000  -0.1250000   0.1875000), wk =   0.0117188
        k(   12) = (  -0.0625000  -0.1875000   0.2500000), wk =   0.0117188
        k(   13) = (  -0.0625000  -0.2500000   0.3125000), wk =   0.0117188
        k(   14) = (  -0.0625000  -0.3125000   0.3750000), wk =   0.0117188
        k(   15) = (  -0.0625000  -0.3750000   0.4375000), wk =   0.0117188
        k(   16) = (  -0.0625000   0.5625000  -0.5000000), wk =   0.0117188
        k(   17) = (  -0.1250000  -0.1250000   0.2500000), wk =   0.0058594
        k(   18) = (  -0.1250000  -0.1875000   0.3125000), wk =   0.0117188
        k(   19) = (  -0.1250000  -0.2500000   0.3750000), wk =   0.0117188
        k(   20) = (  -0.1250000  -0.3125000   0.4375000), wk =   0.0117188
        k(   21) = (  -0.1250000   0.6250000  -0.5000000), wk =   0.0117188
        k(   22) = (  -0.1250000   0.5625000  -0.4375000), wk =   0.0058594
        k(   23) = (  -0.1875000  -0.1875000   0.3750000), wk =   0.0058594
        k(   24) = (  -0.1875000  -0.2500000   0.4375000), wk =   0.0117188
        k(   25) = (  -0.1875000   0.6875000  -0.5000000), wk =   0.0117188
        k(   26) = (  -0.1875000   0.6250000  -0.4375000), wk =   0.0117188
        k(   27) = (  -0.2500000   0.7500000  -0.5000000), wk =   0.0058594
        k(   28) = (  -0.2500000   0.6875000  -0.4375000), wk =   0.0117188
        k(   29) = (  -0.2500000   0.6250000  -0.3750000), wk =   0.0058594
        k(   30) = (  -0.3125000   0.6875000  -0.3750000), wk =   0.0058594
        k(   31) = (   0.0000000   0.0000000   0.1250000), wk =   0.0014648
        k(   32) = (   0.0000000  -0.0625000   0.1875000), wk =   0.0058594
        k(   33) = (   0.0000000  -0.1250000   0.2500000), wk =   0.0058594
        k(   34) = (   0.0000000  -0.1875000   0.3125000), wk =   0.0058594
        k(   35) = (   0.0000000  -0.2500000   0.3750000), wk =   0.0058594
        k(   36) = (   0.0000000  -0.3125000   0.4375000), wk =   0.0058594
        k(   37) = (   0.0000000  -0.3750000   0.5000000), wk =   0.0058594
        k(   38) = (   0.0000000   0.5625000  -0.4375000), wk =   0.0029297
        k(   39) = (  -0.0625000  -0.0625000   0.2500000), wk =   0.0058594
        k(   40) = (  -0.0625000  -0.1250000   0.3125000), wk =   0.0117188
        k(   41) = (  -0.0625000  -0.1875000   0.3750000), wk =   0.0117188
        k(   42) = (  -0.0625000  -0.2500000   0.4375000), wk =   0.0117188
        k(   43) = (  -0.0625000  -0.3125000   0.5000000), wk =   0.0117188
        k(   44) = (  -0.0625000   0.6250000  -0.4375000), wk =   0.0117188
        k(   45) = (  -0.1250000   0.1250000   0.1250000), wk =   0.0019531
        k(   46) = (  -0.1250000  -0.1250000   0.3750000), wk =   0.0058594
        k(   47) = (  -0.1250000  -0.1875000   0.4375000), wk =   0.0117188
        k(   48) = (  -0.1250000  -0.2500000   0.5000000), wk =   0.0117188
        k(   49) = (  -0.1250000   0.6875000  -0.4375000), wk =   0.0117188
        k(   50) = (  -0.1250000   0.6250000  -0.3750000), wk =   0.0058594
        k(   51) = (  -0.1875000   0.1875000   0.1250000), wk =   0.0058594
        k(   52) = (  -0.1875000  -0.1875000   0.5000000), wk =   0.0058594
        k(   53) = (  -0.1875000   0.7500000  -0.4375000), wk =   0.0117188
        k(   54) = (  -0.1875000   0.6875000  -0.3750000), wk =   0.0117188
        k(   55) = (  -0.2500000   0.2500000   0.1250000), wk =   0.0058594
        k(   56) = (  -0.2500000   0.1875000   0.1875000), wk =   0.0058594
        k(   57) = (  -0.2500000   0.7500000  -0.3750000), wk =   0.0058594
        k(   58) = (  -0.2500000   0.6875000  -0.3125000), wk =   0.0058594
        k(   59) = (  -0.3125000   0.3125000   0.1250000), wk =   0.0058594
        k(   60) = (  -0.3125000   0.2500000   0.1875000), wk =   0.0117188
        k(   61) = (  -0.3750000   0.3750000   0.1250000), wk =   0.0058594
        k(   62) = (  -0.3750000   0.3125000   0.1875000), wk =   0.0117188
        k(   63) = (  -0.3750000   0.2500000   0.2500000), wk =   0.0058594
        k(   64) = (   0.5625000  -0.5625000   0.1250000), wk =   0.0058594
        k(   65) = (   0.5625000  -0.6250000   0.1875000), wk =   0.0117188
        k(   66) = (   0.5625000  -0.6875000   0.2500000), wk =   0.0117188
        k(   67) = (   0.5000000  -0.5000000   0.1250000), wk =   0.0029297
        k(   68) = (   0.5000000  -0.5625000   0.1875000), wk =   0.0117188
        k(   69) = (   0.5000000  -0.6250000   0.2500000), wk =   0.0117188
        k(   70) = (   0.5000000  -0.6875000   0.3125000), wk =   0.0058594
        k(   71) = (   0.4375000  -0.5625000   0.2500000), wk =   0.0058594
        k(   72) = (   0.4375000  -0.6250000   0.3125000), wk =   0.0117188
        k(   73) = (   0.3750000  -0.6250000   0.3750000), wk =   0.0019531
        k(   74) = (   0.0000000   0.0000000   0.2500000), wk =   0.0014648
        k(   75) = (   0.0000000  -0.0625000   0.3125000), wk =   0.0058594
        k(   76) = (   0.0000000  -0.1250000   0.3750000), wk =   0.0058594
        k(   77) = (   0.0000000  -0.1875000   0.4375000), wk =   0.0058594
        k(   78) = (   0.0000000  -0.2500000   0.5000000), wk =   0.0058594
        k(   79) = (   0.0000000  -0.3125000   0.5625000), wk =   0.0058594
        k(   80) = (   0.0000000   0.6250000  -0.3750000), wk =   0.0029297
        k(   81) = (  -0.0625000  -0.0625000   0.3750000), wk =   0.0058594
        k(   82) = (  -0.0625000  -0.1250000   0.4375000), wk =   0.0117188
        k(   83) = (  -0.0625000  -0.1875000   0.5000000), wk =   0.0117188
        k(   84) = (  -0.0625000  -0.2500000   0.5625000), wk =   0.0117188
        k(   85) = (  -0.0625000   0.6875000  -0.3750000), wk =   0.0117188
        k(   86) = (  -0.1250000  -0.1250000   0.5000000), wk =   0.0058594
        k(   87) = (  -0.1250000  -0.1875000   0.5625000), wk =   0.0117188
        k(   88) = (  -0.1250000   0.7500000  -0.3750000), wk =   0.0117188
        k(   89) = (  -0.1250000   0.6875000  -0.3125000), wk =   0.0058594
        k(   90) = (  -0.1875000   0.8125000  -0.3750000), wk =   0.0058594
        k(   91) = (  -0.1875000   0.7500000  -0.3125000), wk =   0.0117188
        k(   92) = (  -0.2500000   0.2500000   0.2500000), wk =   0.0019531
        k(   93) = (  -0.2500000   0.7500000  -0.2500000), wk =   0.0019531
        k(   94) = (  -0.3125000   0.3125000   0.2500000), wk =   0.0058594
        k(   95) = (   0.6250000  -0.6250000   0.2500000), wk =   0.0058594
        k(   96) = (   0.6250000  -0.6875000   0.3125000), wk =   0.0058594
        k(   97) = (   0.5625000  -0.5625000   0.2500000), wk =   0.0058594
        k(   98) = (   0.5625000  -0.6250000   0.3125000), wk =   0.0117188
        k(   99) = (   0.5000000  -0.5000000   0.2500000), wk =   0.0029297
        k(  100) = (   0.5000000  -0.5625000   0.3125000), wk =   0.0117188
        k(  101) = (   0.5000000  -0.6250000   0.3750000), wk =   0.0058594
        k(  102) = (   0.4375000  -0.5625000   0.3750000), wk =   0.0058594
        k(  103) = (   0.0000000   0.0000000   0.3750000), wk =   0.0014648
        k(  104) = (   0.0000000  -0.0625000   0.4375000), wk =   0.0058594
        k(  105) = (   0.0000000  -0.1250000   0.5000000), wk =   0.0058594
        k(  106) = (   0.0000000  -0.1875000   0.5625000), wk =   0.0058594
        k(  107) = (   0.0000000  -0.2500000   0.6250000), wk =   0.0058594
        k(  108) = (   0.0000000   0.6875000  -0.3125000), wk =   0.0029297
        k(  109) = (  -0.0625000  -0.0625000   0.5000000), wk =   0.0058594
        k(  110) = (  -0.0625000  -0.1250000   0.5625000), wk =   0.0117188
        k(  111) = (  -0.0625000  -0.1875000   0.6250000), wk =   0.0117188
        k(  112) = (  -0.0625000   0.7500000  -0.3125000), wk =   0.0117188
        k(  113) = (  -0.1250000  -0.1250000   0.6250000), wk =   0.0058594
        k(  114) = (  -0.1250000   0.8125000  -0.3125000), wk =   0.0117188
        k(  115) = (  -0.1250000   0.7500000  -0.2500000), wk =   0.0058594
        k(  116) = (  -0.1875000   0.8125000  -0.2500000), wk =   0.0058594
        k(  117) = (   0.6250000  -0.6250000   0.3750000), wk =   0.0019531
        k(  118) = (   0.5625000  -0.5625000   0.3750000), wk =   0.0058594
        k(  119) = (   0.5000000  -0.5000000   0.3750000), wk =   0.0029297
        k(  120) = (   0.5000000  -0.5625000   0.4375000), wk =   0.0058594
        k(  121) = (   0.0000000   0.0000000   0.5000000), wk =   0.0014648
        k(  122) = (   0.0000000  -0.0625000   0.5625000), wk =   0.0058594
        k(  123) = (   0.0000000  -0.1250000   0.6250000), wk =   0.0058594
        k(  124) = (   0.0000000  -0.1875000   0.6875000), wk =   0.0058594
        k(  125) = (   0.0000000   0.7500000  -0.2500000), wk =   0.0029297
        k(  126) = (  -0.0625000  -0.0625000   0.6250000), wk =   0.0058594
        k(  127) = (  -0.0625000  -0.1250000   0.6875000), wk =   0.0117188
        k(  128) = (  -0.0625000   0.8125000  -0.2500000), wk =   0.0117188
        k(  129) = (  -0.1250000   0.8750000  -0.2500000), wk =   0.0058594
        k(  130) = (  -0.1250000   0.8125000  -0.1875000), wk =   0.0058594
        k(  131) = (   0.5000000  -0.5000000   0.5000000), wk =   0.0004883
        k(  132) = (   0.0000000   0.0000000   0.6250000), wk =   0.0014648
        k(  133) = (   0.0000000  -0.0625000   0.6875000), wk =   0.0058594
        k(  134) = (   0.0000000  -0.1250000   0.7500000), wk =   0.0058594
        k(  135) = (   0.0000000   0.8125000  -0.1875000), wk =   0.0029297
        k(  136) = (  -0.0625000  -0.0625000   0.7500000), wk =   0.0058594
        k(  137) = (  -0.0625000   0.8750000  -0.1875000), wk =   0.0117188
        k(  138) = (  -0.1250000   0.8750000  -0.1250000), wk =   0.0019531
        k(  139) = (   0.0000000   0.0000000   0.7500000), wk =   0.0014648
        k(  140) = (   0.0000000  -0.0625000   0.8125000), wk =   0.0058594
        k(  141) = (   0.0000000   0.8750000  -0.1250000), wk =   0.0029297
        k(  142) = (  -0.0625000   0.9375000  -0.1250000), wk =   0.0058594
        k(  143) = (   0.0000000   0.0000000   0.8750000), wk =   0.0014648
        k(  144) = (   0.0000000   0.9375000  -0.0625000), wk =   0.0029297
        k(  145) = (   0.0000000   0.0000000  -1.0000000), wk =   0.0002441

                       cryst. coord.
        k(    1) = (   0.0000000   0.0000000   0.0000000), wk =   0.0002441
        k(    2) = (   0.0000000   0.0000000   0.0625000), wk =   0.0029297
        k(    3) = (   0.0000000   0.0000000   0.1250000), wk =   0.0029297
        k(    4) = (   0.0000000   0.0000000   0.1875000), wk =   0.0029297
        k(    5) = (   0.0000000   0.0000000   0.2500000), wk =   0.0029297
        k(    6) = (   0.0000000   0.0000000   0.3125000), wk =   0.0029297
        k(    7) = (   0.0000000   0.0000000   0.3750000), wk =   0.0029297
        k(    8) = (   0.0000000   0.0000000   0.4375000), wk =   0.0029297
        k(    9) = (   0.0000000   0.0000000  -0.5000000), wk =   0.0014648
        k(   10) = (   0.0000000   0.0625000   0.1250000), wk =   0.0058594
        k(   11) = (   0.0000000   0.0625000   0.1875000), wk =   0.0117188
        k(   12) = (   0.0000000   0.0625000   0.2500000), wk =   0.0117188
        k(   13) = (   0.0000000   0.0625000   0.3125000), wk =   0.0117188
        k(   14) = (   0.0000000   0.0625000   0.3750000), wk =   0.0117188
        k(   15) = (   0.0000000   0.0625000   0.4375000), wk =   0.0117188
        k(   16) = (   0.0000000   0.0625000  -0.5000000), wk =   0.0117188
        k(   17) = (   0.0000000   0.1250000   0.2500000), wk =   0.0058594
        k(   18) = (   0.0000000   0.1250000   0.3125000), wk =   0.0117188
        k(   19) = (   0.0000000   0.1250000   0.3750000), wk =   0.0117188
        k(   20) = (   0.0000000   0.1250000   0.4375000), wk =   0.0117188
        k(   21) = (   0.0000000   0.1250000  -0.5000000), wk =   0.0117188
        k(   22) = (   0.0000000   0.1250000  -0.4375000), wk =   0.0058594
        k(   23) = (   0.0000000   0.1875000   0.3750000), wk =   0.0058594
        k(   24) = (   0.0000000   0.1875000   0.4375000), wk =   0.0117188
        k(   25) = (   0.0000000   0.1875000  -0.5000000), wk =   0.0117188
        k(   26) = (   0.0000000   0.1875000  -0.4375000), wk =   0.0117188
        k(   27) = (   0.0000000   0.2500000  -0.5000000), wk =   0.0058594
        k(   28) = (   0.0000000   0.2500000  -0.4375000), wk =   0.0117188
        k(   29) = (   0.0000000   0.2500000  -0.3750000), wk =   0.0058594
        k(   30) = (   0.0000000   0.3125000  -0.3750000), wk =   0.0058594
        k(   31) = (   0.0625000   0.0625000   0.0625000), wk =   0.0014648
        k(   32) = (   0.0625000   0.0625000   0.1250000), wk =   0.0058594
        k(   33) = (   0.0625000   0.0625000   0.1875000), wk =   0.0058594
        k(   34) = (   0.0625000   0.0625000   0.2500000), wk =   0.0058594
        k(   35) = (   0.0625000   0.0625000   0.3125000), wk =   0.0058594
        k(   36) = (   0.0625000   0.0625000   0.3750000), wk =   0.0058594
        k(   37) = (   0.0625000   0.0625000   0.4375000), wk =   0.0058594
        k(   38) = (   0.0625000   0.0625000  -0.5000000), wk =   0.0029297
        k(   39) = (   0.0625000   0.1250000   0.1875000), wk =   0.0058594
        k(   40) = (   0.0625000   0.1250000   0.2500000), wk =   0.0117188
        k(   41) = (   0.0625000   0.1250000   0.3125000), wk =   0.0117188
        k(   42) = (   0.0625000   0.1250000   0.3750000), wk =   0.0117188
        k(   43) = (   0.0625000   0.1250000   0.4375000), wk =   0.0117188
        k(   44) = (   0.0625000   0.1250000  -0.5000000), wk =   0.0117188
        k(   45) = (   0.0625000   0.1875000   0.0625000), wk =   0.0019531
        k(   46) = (   0.0625000   0.1875000   0.3125000), wk =   0.0058594
        k(   47) = (   0.0625000   0.1875000   0.3750000), wk =   0.0117188
        k(   48) = (   0.0625000   0.1875000   0.4375000), wk =   0.0117188
        k(   49) = (   0.0625000   0.1875000  -0.5000000), wk =   0.0117188
        k(   50) = (   0.0625000   0.1875000  -0.4375000), wk =   0.0058594
        k(   51) = (   0.0625000   0.2500000   0.0625000), wk =   0.0058594
        k(   52) = (   0.0625000   0.2500000   0.4375000), wk =   0.0058594
        k(   53) = (   0.0625000   0.2500000  -0.5000000), wk =   0.0117188
        k(   54) = (   0.0625000   0.2500000  -0.4375000), wk =   0.0117188
        k(   55) = (   0.0625000   0.3125000   0.0625000), wk =   0.0058594
        k(   56) = (   0.0625000   0.3125000   0.1250000), wk =   0.0058594
        k(   57) = (   0.0625000   0.3125000  -0.4375000), wk =   0.0058594
        k(   58) = (   0.0625000   0.3125000  -0.3750000), wk =   0.0058594
        k(   59) = (   0.0625000   0.3750000   0.0625000), wk =   0.0058594
        k(   60) = (   0.0625000   0.3750000   0.1250000), wk =   0.0117188
        k(   61) = (   0.0625000   0.4375000   0.0625000), wk =   0.0058594
        k(   62) = (   0.0625000   0.4375000   0.1250000), wk =   0.0117188
        k(   63) = (   0.0625000   0.4375000   0.1875000), wk =   0.0058594
        k(   64) = (   0.0625000  -0.5000000   0.0625000), wk =   0.0058594
        k(   65) = (   0.0625000  -0.5000000   0.1250000), wk =   0.0117188
        k(   66) = (   0.0625000  -0.5000000   0.1875000), wk =   0.0117188
        k(   67) = (   0.0625000  -0.4375000   0.0625000), wk =   0.0029297
        k(   68) = (   0.0625000  -0.4375000   0.1250000), wk =   0.0117188
        k(   69) = (   0.0625000  -0.4375000   0.1875000), wk =   0.0117188
        k(   70) = (   0.0625000  -0.4375000   0.2500000), wk =   0.0058594
        k(   71) = (   0.0625000  -0.3750000   0.1875000), wk =   0.0058594
        k(   72) = (   0.0625000  -0.3750000   0.2500000), wk =   0.0117188
        k(   73) = (   0.0625000  -0.3125000   0.3125000), wk =   0.0019531
        k(   74) = (   0.1250000   0.1250000   0.1250000), wk =   0.0014648
        k(   75) = (   0.1250000   0.1250000   0.1875000), wk =   0.0058594
        k(   76) = (   0.1250000   0.1250000   0.2500000), wk =   0.0058594
        k(   77) = (   0.1250000   0.1250000   0.3125000), wk =   0.0058594
        k(   78) = (   0.1250000   0.1250000   0.3750000), wk =   0.0058594
        k(   79) = (   0.1250000   0.1250000   0.4375000), wk =   0.0058594
        k(   80) = (   0.1250000   0.1250000  -0.5000000), wk =   0.0029297
        k(   81) = (   0.1250000   0.1875000   0.2500000), wk =   0.0058594
        k(   82) = (   0.1250000   0.1875000   0.3125000), wk =   0.0117188
        k(   83) = (   0.1250000   0.1875000   0.3750000), wk =   0.0117188
        k(   84) = (   0.1250000   0.1875000   0.4375000), wk =   0.0117188
        k(   85) = (   0.1250000   0.1875000  -0.5000000), wk =   0.0117188
        k(   86) = (   0.1250000   0.2500000   0.3750000), wk =   0.0058594
        k(   87) = (   0.1250000   0.2500000   0.4375000), wk =   0.0117188
        k(   88) = (   0.1250000   0.2500000  -0.5000000), wk =   0.0117188
        k(   89) = (   0.1250000   0.2500000  -0.4375000), wk =   0.0058594
        k(   90) = (   0.1250000   0.3125000  -0.5000000), wk =   0.0058594
        k(   91) = (   0.1250000   0.3125000  -0.4375000), wk =   0.0117188
        k(   92) = (   0.1250000   0.3750000   0.1250000), wk =   0.0019531
        k(   93) = (   0.1250000   0.3750000  -0.3750000), wk =   0.0019531
        k(   94) = (   0.1250000   0.4375000   0.1250000), wk =   0.0058594
        k(   95) = (   0.1250000  -0.5000000   0.1250000), wk =   0.0058594
        k(   96) = (   0.1250000  -0.5000000   0.1875000), wk =   0.0058594
        k(   97) = (   0.1250000  -0.4375000   0.1250000), wk =   0.0058594
        k(   98) = (   0.1250000  -0.4375000   0.1875000), wk =   0.0117188
        k(   99) = (   0.1250000  -0.3750000   0.1250000), wk =   0.0029297
        k(  100) = (   0.1250000  -0.3750000   0.1875000), wk =   0.0117188
        k(  101) = (   0.1250000  -0.3750000   0.2500000), wk =   0.0058594
        k(  102) = (   0.1250000  -0.3125000   0.2500000), wk =   0.0058594
        k(  103) = (   0.1875000   0.1875000   0.1875000), wk =   0.0014648
        k(  104) = (   0.1875000   0.1875000   0.2500000), wk =   0.0058594
        k(  105) = (   0.1875000   0.1875000   0.3125000), wk =   0.0058594
        k(  106) = (   0.1875000   0.1875000   0.3750000), wk =   0.0058594
        k(  107) = (   0.1875000   0.1875000   0.4375000), wk =   0.0058594
        k(  108) = (   0.1875000   0.1875000  -0.5000000), wk =   0.0029297
        k(  109) = (   0.1875000   0.2500000   0.3125000), wk =   0.0058594
        k(  110) = (   0.1875000   0.2500000   0.3750000), wk =   0.0117188
        k(  111) = (   0.1875000   0.2500000   0.4375000), wk =   0.0117188
        k(  112) = (   0.1875000   0.2500000  -0.5000000), wk =   0.0117188
        k(  113) = (   0.1875000   0.3125000   0.4375000), wk =   0.0058594
        k(  114) = (   0.1875000   0.3125000  -0.5000000), wk =   0.0117188
        k(  115) = (   0.1875000   0.3125000  -0.4375000), wk =   0.0058594
        k(  116) = (   0.1875000   0.3750000  -0.4375000), wk =   0.0058594
        k(  117) = (   0.1875000  -0.4375000   0.1875000), wk =   0.0019531
        k(  118) = (   0.1875000  -0.3750000   0.1875000), wk =   0.0058594
        k(  119) = (   0.1875000  -0.3125000   0.1875000), wk =   0.0029297
        k(  120) = (   0.1875000  -0.3125000   0.2500000), wk =   0.0058594
        k(  121) = (   0.2500000   0.2500000   0.2500000), wk =   0.0014648
        k(  122) = (   0.2500000   0.2500000   0.3125000), wk =   0.0058594
        k(  123) = (   0.2500000   0.2500000   0.3750000), wk =   0.0058594
        k(  124) = (   0.2500000   0.2500000   0.4375000), wk =   0.0058594
        k(  125) = (   0.2500000   0.2500000  -0.5000000), wk =   0.0029297
        k(  126) = (   0.2500000   0.3125000   0.3750000), wk =   0.0058594
        k(  127) = (   0.2500000   0.3125000   0.4375000), wk =   0.0117188
        k(  128) = (   0.2500000   0.3125000  -0.5000000), wk =   0.0117188
        k(  129) = (   0.2500000   0.3750000  -0.5000000), wk =   0.0058594
        k(  130) = (   0.2500000   0.3750000  -0.4375000), wk =   0.0058594
        k(  131) = (   0.2500000  -0.2500000   0.2500000), wk =   0.0004883
        k(  132) = (   0.3125000   0.3125000   0.3125000), wk =   0.0014648
        k(  133) = (   0.3125000   0.3125000   0.3750000), wk =   0.0058594
        k(  134) = (   0.3125000   0.3125000   0.4375000), wk =   0.0058594
        k(  135) = (   0.3125000   0.3125000  -0.5000000), wk =   0.0029297
        k(  136) = (   0.3125000   0.3750000   0.4375000), wk =   0.0058594
        k(  137) = (   0.3125000   0.3750000  -0.5000000), wk =   0.0117188
        k(  138) = (   0.3125000   0.4375000  -0.4375000), wk =   0.0019531
        k(  139) = (   0.3750000   0.3750000   0.3750000), wk =   0.0014648
        k(  140) = (   0.3750000   0.3750000   0.4375000), wk =   0.0058594
        k(  141) = (   0.3750000   0.3750000  -0.5000000), wk =   0.0029297
        k(  142) = (   0.3750000   0.4375000  -0.5000000), wk =   0.0058594
        k(  143) = (   0.4375000   0.4375000   0.4375000), wk =   0.0014648
        k(  144) = (   0.4375000   0.4375000  -0.5000000), wk =   0.0029297
        k(  145) = (  -0.5000000  -0.5000000  -0.5000000), wk =   0.0002441

     Dense  grid:     3805 G-vectors     FFT dimensions: (  24,  24,  24)

     Smooth grid:     1409 G-vectors     FFT dimensions: (  15,  15,  15)

     Dynamical RAM for                 wfc:       0.03 MB

     Dynamical RAM for     wfc (w. buffer):       4.49 MB

     Dynamical RAM for           str. fact:       0.06 MB

     Dynamical RAM for           local pot:       0.00 MB

     Dynamical RAM for          nlocal pot:       0.05 MB

     Dynamical RAM for                qrad:       1.14 MB

     Dynamical RAM for          rho,v,vnew:       0.98 MB

     Dynamical RAM for               rhoin:       0.33 MB

     Dynamical RAM for            rho*nmix:       1.86 MB

     Dynamical RAM for           G-vectors:       0.23 MB

     Dynamical RAM for          h,s,v(r/c):       0.03 MB

     Dynamical RAM for          <psi|beta>:       0.00 MB

     Dynamical RAM for                 psi:       0.06 MB

     Dynamical RAM for                hpsi:       0.06 MB

     Dynamical RAM for                spsi:       0.06 MB

     Dynamical RAM for      wfcinit/wfcrot:       0.07 MB

     Dynamical RAM for           addusdens:       5.51 MB

     Estimated static dynamical RAM per process >       8.02 MB

     Estimated max dynamical RAM per process >      15.39 MB

     Estimated total dynamical RAM >      28.92 MB

     Check: negative core charge=   -0.000936
     Generating pointlists ...
     new r_m :   0.3572 (alat units)  1.9362 (a.u.) for type    1

     Initial potential from superposition of free atoms

     starting charge      15.9996, renormalised to      16.0000
     Starting wfcs are   13 randomized atomic wfcs
     Checking if some PAW data can be deallocated... 

     total cpu time spent up to now is        0.5 secs

     per-process dynamical memory:    76.4 Mb

     Self-consistent Calculation

     iteration #  1     ecut=    25.00 Ry     beta= 0.20
     Davidson diagonalization with overlap

---- Real-time Memory Report at c_bands before calling an iterative solver
            74 MiB given to the printing process from OS
            74 MiB allocation reported by mallinfo(arena+hblkhd)
         13078 MiB available memory on the node where the printing process lives
------------------
     ethr =  1.00E-02,  avg # of iterations =  3.8

     negative rho (up, down):  0.000E+00 5.073E-05

     total cpu time spent up to now is        1.2 secs

     total energy              =    -328.16671643 Ry
     estimated scf accuracy    <       1.12367279 Ry

     total magnetization       =     3.45 Bohr mag/cell
     absolute magnetization    =     3.46 Bohr mag/cell

     iteration #  2     ecut=    25.00 Ry     beta= 0.20
     Davidson diagonalization with overlap

---- Real-time Memory Report at c_bands before calling an iterative solver
            84 MiB given to the printing process from OS
            81 MiB allocation reported by mallinfo(arena+hblkhd)
         13063 MiB available memory on the node where the printing process lives
------------------
     ethr =  7.02E-03,  avg # of iterations =  1.0

     negative rho (up, down):  0.000E+00 4.153E-04

     total cpu time spent up to now is        1.8 secs

     total energy              =    -328.58176151 Ry
     estimated scf accuracy    <       0.73312935 Ry

     total magnetization       =     3.20 Bohr mag/cell
     absolute magnetization    =     3.24 Bohr mag/cell

     iteration #  3     ecut=    25.00 Ry     beta= 0.20
     Davidson diagonalization with overlap

---- Real-time Memory Report at c_bands before calling an iterative solver
            85 MiB given to the printing process from OS
            81 MiB allocation reported by mallinfo(arena+hblkhd)
         13063 MiB available memory on the node where the printing process lives
------------------
     ethr =  4.58E-03,  avg # of iterations =  1.1

     negative rho (up, down):  0.000E+00 5.339E-04

     total cpu time spent up to now is        2.3 secs

     total energy              =    -328.68902784 Ry
     estimated scf accuracy    <       0.18791447 Ry

     total magnetization       =     2.75 Bohr mag/cell
     absolute magnetization    =     2.86 Bohr mag/cell

     iteration #  4     ecut=    25.00 Ry     beta= 0.20
     Davidson diagonalization with overlap

---- Real-time Memory Report at c_bands before calling an iterative solver
            85 MiB given to the printing process from OS
            81 MiB allocation reported by mallinfo(arena+hblkhd)
         13064 MiB available memory on the node where the printing process lives
------------------
     ethr =  1.17E-03,  avg # of iterations =  1.5

     negative rho (up, down):  0.000E+00 5.425E-04

     total cpu time spent up to now is        2.8 secs

     total energy              =    -328.71265167 Ry
     estimated scf accuracy    <       0.00650394 Ry

     total magnetization       =     2.48 Bohr mag/cell
     absolute magnetization    =     2.60 Bohr mag/cell

     iteration #  5     ecut=    25.00 Ry     beta= 0.20
     Davidson diagonalization with overlap

---- Real-time Memory Report at c_bands before calling an iterative solver
            85 MiB given to the printing process from OS
            81 MiB allocation reported by mallinfo(arena+hblkhd)
         13063 MiB available memory on the node where the printing process lives
------------------
     ethr =  4.06E-05,  avg # of iterations =  2.3

     negative rho (up, down):  0.000E+00 3.295E-04

     total cpu time spent up to now is        3.4 secs

     total energy              =    -328.71663855 Ry
     estimated scf accuracy    <       0.00085038 Ry

     total magnetization       =     2.46 Bohr mag/cell
     absolute magnetization    =     2.59 Bohr mag/cell

     iteration #  6     ecut=    25.00 Ry     beta= 0.20
     Davidson diagonalization with overlap

---- Real-time Memory Report at c_bands before calling an iterative solver
            85 MiB given to the printing process from OS
            81 MiB allocation reported by mallinfo(arena+hblkhd)
         13059 MiB available memory on the node where the printing process lives
------------------
     ethr =  5.31E-06,  avg # of iterations =  1.8

     negative rho (up, down):  0.000E+00 3.360E-04

     total cpu time spent up to now is        4.0 secs

     total energy              =    -328.71819940 Ry
     estimated scf accuracy    <       0.00240721 Ry

     total magnetization       =     2.48 Bohr mag/cell
     absolute magnetization    =     2.58 Bohr mag/cell

     iteration #  7     ecut=    25.00 Ry     beta= 0.20
     Davidson diagonalization with overlap

---- Real-time Memory Report at c_bands before calling an iterative solver
            85 MiB given to the printing process from OS
            81 MiB allocation reported by mallinfo(arena+hblkhd)
         13059 MiB available memory on the node where the printing process lives
------------------
     ethr =  5.31E-06,  avg # of iterations =  2.0

     negative rho (up, down):  0.000E+00 3.624E-04

     total cpu time spent up to now is        4.5 secs

     total energy              =    -328.72017118 Ry
     estimated scf accuracy    <       0.00006499 Ry

     total magnetization       =     2.48 Bohr mag/cell
     absolute magnetization    =     2.58 Bohr mag/cell

     iteration #  8     ecut=    25.00 Ry     beta= 0.20
     Davidson diagonalization with overlap

---- Real-time Memory Report at c_bands before calling an iterative solver
            85 MiB given to the printing process from OS
            81 MiB allocation reported by mallinfo(arena+hblkhd)
         13060 MiB available memory on the node where the printing process lives
------------------
     ethr =  4.06E-07,  avg # of iterations =  1.7

     negative rho (up, down):  0.000E+00 3.799E-04

     total cpu time spent up to now is        5.1 secs

     total energy              =    -328.72093210 Ry
     estimated scf accuracy    <       0.00005293 Ry

     total magnetization       =     2.48 Bohr mag/cell
     absolute magnetization    =     2.58 Bohr mag/cell

     iteration #  9     ecut=    25.00 Ry     beta= 0.20
     Davidson diagonalization with overlap

---- Real-time Memory Report at c_bands before calling an iterative solver
            85 MiB given to the printing process from OS
            81 MiB allocation reported by mallinfo(arena+hblkhd)
         13059 MiB available memory on the node where the printing process lives
------------------
     ethr =  3.31E-07,  avg # of iterations =  1.6

     negative rho (up, down):  0.000E+00 3.965E-04

     total cpu time spent up to now is        5.6 secs

     total energy              =    -328.72170381 Ry
     estimated scf accuracy    <       0.00004874 Ry

     total magnetization       =     2.47 Bohr mag/cell
     absolute magnetization    =     2.57 Bohr mag/cell

     iteration # 10     ecut=    25.00 Ry     beta= 0.20
     Davidson diagonalization with overlap

---- Real-time Memory Report at c_bands before calling an iterative solver
            86 MiB given to the printing process from OS
            81 MiB allocation reported by mallinfo(arena+hblkhd)
         13058 MiB available memory on the node where the printing process lives
------------------
     ethr =  3.05E-07,  avg # of iterations =  1.2

     negative rho (up, down):  0.000E+00 4.079E-04

     total cpu time spent up to now is        6.1 secs

     total energy              =    -328.72218515 Ry
     estimated scf accuracy    <       0.00002225 Ry

     total magnetization       =     2.47 Bohr mag/cell
     absolute magnetization    =     2.57 Bohr mag/cell

     iteration # 11     ecut=    25.00 Ry     beta= 0.20
     Davidson diagonalization with overlap

---- Real-time Memory Report at c_bands before calling an iterative solver
            86 MiB given to the printing process from OS
            81 MiB allocation reported by mallinfo(arena+hblkhd)
         13061 MiB available memory on the node where the printing process lives
------------------
     ethr =  1.39E-07,  avg # of iterations =  1.1

     negative rho (up, down):  0.000E+00 4.160E-04

     total cpu time spent up to now is        6.7 secs

     total energy              =    -328.72249184 Ry
     estimated scf accuracy    <       0.00001973 Ry

     total magnetization       =     2.47 Bohr mag/cell
     absolute magnetization    =     2.57 Bohr mag/cell

     iteration # 12     ecut=    25.00 Ry     beta= 0.20
     Davidson diagonalization with overlap

---- Real-time Memory Report at c_bands before calling an iterative solver
            86 MiB given to the printing process from OS
            81 MiB allocation reported by mallinfo(arena+hblkhd)
         13069 MiB available memory on the node where the printing process lives
------------------
     ethr =  1.23E-07,  avg # of iterations =  1.0

     negative rho (up, down):  0.000E+00 4.225E-04

     total cpu time spent up to now is        7.1 secs

     total energy              =    -328.72267499 Ry
     estimated scf accuracy    <       0.00001838 Ry

     total magnetization       =     2.47 Bohr mag/cell
     absolute magnetization    =     2.57 Bohr mag/cell

     iteration # 13     ecut=    25.00 Ry     beta= 0.20
     Davidson diagonalization with overlap

---- Real-time Memory Report at c_bands before calling an iterative solver
            86 MiB given to the printing process from OS
            81 MiB allocation reported by mallinfo(arena+hblkhd)
         13068 MiB available memory on the node where the printing process lives
------------------
     ethr =  1.15E-07,  avg # of iterations =  1.3

     negative rho (up, down):  0.000E+00 4.273E-04

     total cpu time spent up to now is        7.6 secs

     total energy              =    -328.72281911 Ry
     estimated scf accuracy    <       0.00000693 Ry

     total magnetization       =     2.47 Bohr mag/cell
     absolute magnetization    =     2.57 Bohr mag/cell

     iteration # 14     ecut=    25.00 Ry     beta= 0.20
     Davidson diagonalization with overlap

---- Real-time Memory Report at c_bands before calling an iterative solver
            86 MiB given to the printing process from OS
            81 MiB allocation reported by mallinfo(arena+hblkhd)
         13070 MiB available memory on the node where the printing process lives
------------------
     ethr =  4.33E-08,  avg # of iterations =  1.3

     negative rho (up, down):  0.000E+00 4.277E-04

     total cpu time spent up to now is        8.1 secs

     total energy              =    -328.72282438 Ry
     estimated scf accuracy    <       0.00000516 Ry

     total magnetization       =     2.47 Bohr mag/cell
     absolute magnetization    =     2.57 Bohr mag/cell

     iteration # 15     ecut=    25.00 Ry     beta= 0.20
     Davidson diagonalization with overlap

---- Real-time Memory Report at c_bands before calling an iterative solver
            86 MiB given to the printing process from OS
            81 MiB allocation reported by mallinfo(arena+hblkhd)
         13060 MiB available memory on the node where the printing process lives
------------------
     ethr =  3.22E-08,  avg # of iterations =  1.9

     negative rho (up, down):  0.000E+00 4.325E-04

     total cpu time spent up to now is        8.8 secs

     total energy              =    -328.72295076 Ry
     estimated scf accuracy    <       0.00000067 Ry

     total magnetization       =     2.46 Bohr mag/cell
     absolute magnetization    =     2.56 Bohr mag/cell

     iteration # 16     ecut=    25.00 Ry     beta= 0.20
     Davidson diagonalization with overlap

---- Real-time Memory Report at c_bands before calling an iterative solver
            86 MiB given to the printing process from OS
            81 MiB allocation reported by mallinfo(arena+hblkhd)
         13070 MiB available memory on the node where the printing process lives
------------------
     ethr =  4.17E-09,  avg # of iterations =  2.0

     negative rho (up, down):  0.000E+00 4.488E-04
 
     Magnetic moment per site  (integrated on atomic sphere of radius R)
     atom   1 (R=0.357)  charge= 14.5862  magn=  2.4987

     total cpu time spent up to now is        9.3 secs

     End of self-consistent calculation

 ------ SPIN UP ------------


          k = 0.0000 0.0000 0.0000 (   177 PWs)   bands (ev):

   -70.6156 -35.6812 -35.6812 -35.6812   9.8994  15.2824  15.2824  15.2824
    16.3131  16.3131  42.0426  42.0426

     occupation numbers 
     1.0000   1.0000   1.0000   1.0000   1.0000   1.0000   1.0000   1.0000
     1.0000   1.0000   0.0000   0.0000

          k = 0.0000-0.0625 0.0625 (   172 PWs)   bands (ev):

   -70.5805 -35.6751 -35.6456 -35.5715  10.1308  15.2420  15.2893  15.3683
    16.2776  16.3272  41.0084  41.8130

     occupation numbers 
     1.0000   1.0000   1.0000   1.0000   1.0000   1.0000   1.0000   1.0000
     1.0000   1.0000   0.0000   0.0000

          k = 0.0000-0.1250 0.1250 (   166 PWs)   bands (ev):

   -70.5460 -35.6229 -35.6178 -35.5471  10.7271  15.1315  15.2783  15.6201
    16.1967  16.3468  38.9817  41.1704

     occupation numbers 
     1.0000   1.0000   1.0000   1.0000   1.0000   1.0000   1.0000   1.0000
     1.0000   1.0000   0.0000   0.0000

          k = 0.0000-0.1875 0.1875 (   168 PWs)   bands (ev):

   -70.5511 -35.7381 -35.6188 -35.6116  11.5332  14.9572  15.2645  15.9987
    16.1594  16.3531  36.6843  40.2358

     occupation numbers 
     1.0000   1.0000   1.0000   1.0000   1.0000   1.0000   1.0000   1.0000
     1.0000   1.0000   0.0000   0.0000

          k = 0.0000-0.2500 0.2500 (   168 PWs)   bands (ev):

   -70.5396 -35.8172 -35.6465 -35.6309  12.3859  14.7603  15.4204  16.2122
    16.3788  16.4613  34.2339  39.2441

     occupation numbers 
     1.0000   1.0000   1.0000   1.0000   1.0000   1.0000   1.0000   1.0000
     1.0000   1.0000   0.0000   0.0000

          k = 0.0000-0.3125 0.3125 (   168 PWs)   bands (ev):

   -70.5235 -35.8979 -35.6774 -35.6158  12.9100  14.5691  16.0639  16.4192
    16.4765  16.9454  31.5953  38.3311

     occupation numbers 
     1.0000   1.0000   1.0000   1.0000   1.0000   1.0000   1.0000   1.0000
     1.0000   1.0000   0.0000   0.0000

          k = 0.0000-0.3750 0.3750 (   172 PWs)   bands (ev):

   -70.5314 -36.0131 -35.7468 -35.6297  12.9885  14.4107  16.3164  16.4508
    17.3705  17.8067  28.9221  37.6019

     occupation numbers 
     1.0000   1.0000   1.0000   1.0000   1.0000   1.0000   1.0000   1.0000
     1.0003   0.4983   0.0000   0.0000

          k = 0.0000-0.4375 0.4375 (   168 PWs)   bands (ev):

   -70.4974 -35.9459 -35.7483 -35.6290  12.9351  14.3072  16.4046  16.4776
    17.6765  19.7488  26.5711  37.1360

     occupation numbers 
     1.0000   1.0000   1.0000   1.0000   1.0000   1.0000   1.0000   1.0000
     1.0512   0.0000   0.0000   0.0000

          k = 0.0000 0.5000-0.5000 (   178 PWs)   bands (ev):

   -70.5514 -36.0352 -35.9036 -35.7263  12.8842  14.2680  16.4183  16.4821
    17.7761  20.7544  25.2079  36.9312

     occupation numbers 
     1.0000   1.0000   1.0000   1.0000   1.0000   1.0000   1.0000   1.0000
     0.6663   0.0000   0.0000   0.0000

          k =-0.0625-0.0625 0.1250 (   166 PWs)   bands (ev):

   -70.5453 -35.6067 -35.6005 -35.5588  10.5426  15.1957  15.2417  15.5550
    16.2136  16.3485  39.7609  40.7506

     occupation numbers 
     1.0000   1.0000   1.0000   1.0000   1.0000   1.0000   1.0000   1.0000
     1.0000   1.0000   0.0000   0.0000

          k =-0.0625-0.1250 0.1875 (   167 PWs)   bands (ev):

   -70.5464 -35.6872 -35.6236 -35.5812  11.2234  15.0588  15.1919  15.8904
    16.1350  16.3723  37.7963  39.6914

     occupation numbers 
     1.0000   1.0000   1.0000   1.0000   1.0000   1.0000   1.0000   1.0000
     1.0000   1.0000   0.0000   0.0000

          k =-0.0625-0.1875 0.2500 (   168 PWs)   bands (ev):

   -70.5431 -35.7838 -35.6497 -35.6064  12.0919  14.8699  15.1905  16.1259
    16.3476  16.4141  35.5085  38.7169

     occupation numbers 
     1.0000   1.0000   1.0000   1.0000   1.0000   1.0000   1.0000   1.0000
     1.0000   1.0000   0.0000   0.0000

          k =-0.0625-0.2500 0.3125 (   168 PWs)   bands (ev):

   -70.5293 -35.8647 -35.6592 -35.6258  12.8326  14.6731  15.4902  16.2285
    16.4611  16.9279  32.9980  37.8337

     occupation numbers 
     1.0000   1.0000   1.0000   1.0000   1.0000   1.0000   1.0000   1.0000
     1.0000   1.0000   0.0000   0.0000

          k =-0.0625-0.3125 0.3750 (   170 PWs)   bands (ev):

   -70.5287 -35.9724 -35.7092 -35.6275  13.0934  14.4992  16.0588  16.4095
    16.7169  17.7241  30.3364  37.0798

     occupation numbers 
     1.0000   1.0000   1.0000   1.0000   1.0000   1.0000   1.0000   1.0000
     1.0000   0.9190   0.0000   0.0000

          k =-0.0625-0.3750 0.4375 (   171 PWs)   bands (ev):

   -70.5234 -36.0167 -35.7473 -35.6406  13.0591  14.3704  16.2717  16.4498
    17.2859  19.0997  27.7874  36.5435

     occupation numbers 
     1.0000   1.0000   1.0000   1.0000   1.0000   1.0000   1.0000   1.0000
     1.0000   0.0000   0.0000   0.0000

          k =-0.0625 0.5625-0.5000 (   169 PWs)   bands (ev):

   -70.5050 -35.9721 -35.7742 -35.6450  12.9982  14.3020  16.3773  16.4356
    17.5779  20.8239  25.7101  36.2544

     occupation numbers 
     1.0000   1.0000   1.0000   1.0000   1.0000   1.0000   1.0000   1.0000
     1.0581   0.0000   0.0000   0.0000

          k =-0.1250-0.1250 0.2500 (   170 PWs)   bands (ev):

   -70.5569 -35.7824 -35.6693 -35.6324  11.9847  14.9833  15.0130  16.0783
    16.3338  16.4401  36.3304  37.9707

     occupation numbers 
     1.0000   1.0000   1.0000   1.0000   1.0000   1.0000   1.0000   1.0000
     1.0000   1.0000   0.0000   0.0000

          k =-0.1250-0.1875 0.3125 (   168 PWs)   bands (ev):

   -70.5341 -35.8200 -35.6851 -35.6269  12.8279  14.7878  15.0254  16.1049
    16.4907  16.9889  34.3625  36.6384

     occupation numbers 
     1.0000   1.0000   1.0000   1.0000   1.0000   1.0000   1.0000   1.0000
     1.0000   1.0000   0.0000   0.0000

          k =-0.1250-0.2500 0.3750 (   170 PWs)   bands (ev):

   -70.5340 -35.9563 -35.7045 -35.6412  13.3076  14.6008  15.3842  16.2211
    16.5827  17.8361  31.9221  35.6619

     occupation numbers 
     1.0000   1.0000   1.0000   1.0000   1.0000   1.0000   1.0000   1.0000
     1.0000   0.3480   0.0000   0.0000

          k =-0.1250-0.3125 0.4375 (   170 PWs)   bands (ev):

   -70.5224 -35.9912 -35.7345 -35.6546  13.3476  14.4637  15.8541  16.3667
    16.8222  19.0784  29.3024  35.0115

     occupation numbers 
     1.0000   1.0000   1.0000   1.0000   1.0000   1.0000   1.0000   1.0000
     1.0000   0.0000   0.0000   0.0000

          k =-0.1250 0.6250-0.5000 (   167 PWs)   bands (ev):

   -70.4966 -35.9379 -35.7496 -35.6592  13.2676  14.3797  16.0777  16.4050
    17.1710  20.8709  26.8785  34.5927

     occupation numbers 
     1.0000   1.0000   1.0000   1.0000   1.0000   1.0000   1.0000   1.0000
     1.0000   0.0000   0.0000   0.0000

          k =-0.1250 0.5625-0.4375 (   168 PWs)   bands (ev):

   -70.5000 -35.9449 -35.7907 -35.6647  13.2246  14.3503  16.1492  16.4024
    17.3017  22.0225  25.4560  34.4576

     occupation numbers 
     1.0000   1.0000   1.0000   1.0000   1.0000   1.0000   1.0000   1.0000
     1.0000   0.0000   0.0000   0.0000

          k =-0.1875-0.1875 0.3750 (   172 PWs)   bands (ev):

   -70.5472 -35.9567 -35.7310 -35.6714  13.4499  14.6461  15.0247  16.1417
    16.5818  17.8796  33.0721  34.4761

     occupation numbers 
     1.0000   1.0000   1.0000   1.0000   1.0000   1.0000   1.0000   1.0000
     1.0000   0.1763   0.0000   0.0000

          k =-0.1875-0.2500 0.4375 (   170 PWs)   bands (ev):

   -70.5249 -35.9829 -35.7240 -35.6721  13.6900  14.5144  15.3221  16.2507
    16.6949  19.1066  31.0083  33.2296

     occupation numbers 
     1.0000   1.0000   1.0000   1.0000   1.0000   1.0000   1.0000   1.0000
     1.0000   0.0000   0.0000   0.0000

          k =-0.1875 0.6875-0.5000 (   168 PWs)   bands (ev):

   -70.5025 -35.9386 -35.7710 -35.6650  13.6440  14.4531  15.6115  16.3664
    16.8760  20.8508  28.4744  32.5829

     occupation numbers 
     1.0000   1.0000   1.0000   1.0000   1.0000   1.0000   1.0000   1.0000
     1.0000   0.0000   0.0000   0.0000

          k =-0.1875 0.6250-0.4375 (   165 PWs)   bands (ev):

   -70.4823 -35.8887 -35.7637 -35.6781  13.5731  14.4260  15.7390  16.4173
    17.0468  22.7184  26.2289  32.3063

     occupation numbers 
     1.0000   1.0000   1.0000   1.0000   1.0000   1.0000   1.0000   1.0000
     1.0000   0.0000   0.0000   0.0000

          k =-0.2500 0.7500-0.5000 (   169 PWs)   bands (ev):

   -70.5087 -35.9599 -35.7529 -35.6860  13.8890  14.4573  15.3222  16.3453
    16.7894  20.8008  30.0199  30.9202

     occupation numbers 
     1.0000   1.0000   1.0000   1.0000   1.0000   1.0000   1.0000   1.0000
     1.0000   0.0000   0.0000   0.0000

          k =-0.2500 0.6875-0.4375 (   166 PWs)   bands (ev):

   -70.4858 -35.9067 -35.7659 -35.6813  13.9068  14.4957  15.3290  16.4614
    16.8638  22.7588  27.8583  30.1427

     occupation numbers 
     1.0000   1.0000   1.0000   1.0000   1.0000   1.0000   1.0000   1.0000
     1.0000   0.0000   0.0000   0.0000

          k =-0.2500 0.6250-0.3750 (   166 PWs)   bands (ev):

   -70.4850 -35.8567 -35.8224 -35.6937  13.8870  14.5190  15.3234  16.5054
    16.8942  24.3784  26.1193  29.9438

     occupation numbers 
     1.0000   1.0000   1.0000   1.0000   1.0000   1.0000   1.0000   1.0000
     1.0000   0.0000   0.0000   0.0000

          k =-0.3125 0.6875-0.3750 (   165 PWs)   bands (ev):

   -70.4792 -35.8414 -35.8282 -35.6835  14.0317  14.6718  15.0348  16.6062
    16.7812  24.9276  27.0638  28.1395

     occupation numbers 
     1.0000   1.0000   1.0000   1.0000   1.0000   1.0000   1.0000   1.0000
     1.0000   0.0000   0.0000   0.0000

          k = 0.0000 0.0000 0.1250 (   169 PWs)   bands (ev):

   -70.5635 -35.6481 -35.6481 -35.5397  10.3407  15.2955  15.2955  15.3650
    16.1853  16.3807  40.2700  41.7403

     occupation numbers 
     1.0000   1.0000   1.0000   1.0000   1.0000   1.0000   1.0000   1.0000
     1.0000   1.0000   0.0000   0.0000

          k = 0.0000-0.0625 0.1875 (   170 PWs)   bands (ev):

   -70.5656 -35.6720 -35.6539 -35.6084  10.8715  15.2018  15.2975  15.5892
    16.0537  16.4231  38.7012  41.0703

     occupation numbers 
     1.0000   1.0000   1.0000   1.0000   1.0000   1.0000   1.0000   1.0000
     1.0000   1.0000   0.0000   0.0000

          k = 0.0000-0.1250 0.2500 (   168 PWs)   bands (ev):

   -70.5476 -35.7434 -35.6303 -35.6147  11.6884  15.0390  15.2680  15.9759
    15.9917  16.4738  36.6625  40.0030

     occupation numbers 
     1.0000   1.0000   1.0000   1.0000   1.0000   1.0000   1.0000   1.0000
     1.0000   1.0000   0.0000   0.0000

          k = 0.0000-0.1875 0.3125 (   165 PWs)   bands (ev):

   -70.5194 -35.7887 -35.6368 -35.5920  12.5537  14.8495  15.3281  16.0935
    16.4423  16.5703  34.3302  38.9179

     occupation numbers 
     1.0000   1.0000   1.0000   1.0000   1.0000   1.0000   1.0000   1.0000
     1.0000   1.0000   0.0000   0.0000

          k = 0.0000-0.2500 0.3750 (   169 PWs)   bands (ev):

   -70.5272 -35.9126 -35.6804 -35.6435  13.0317  14.6619  15.6394  16.3176
    16.9286  16.9453  31.7066  37.9691

     occupation numbers 
     1.0000   1.0000   1.0000   1.0000   1.0000   1.0000   1.0000   1.0000
     1.0000   1.0000   0.0000   0.0000

          k = 0.0000-0.3125 0.4375 (   172 PWs)   bands (ev):

   -70.5305 -35.9830 -35.7774 -35.6477  13.0928  14.5077  15.9380  16.4013
    17.3622  18.2092  29.0868  37.2280

     occupation numbers 
     1.0000   1.0000   1.0000   1.0000   1.0000   1.0000   1.0000   1.0000
     1.0002   0.0000   0.0000   0.0000

          k = 0.0000-0.3750 0.5000 (   168 PWs)   bands (ev):

   -70.4975 -35.9405 -35.7596 -35.6481  13.0352  14.4089  16.1217  16.3911
    17.6670  20.1193  26.6669  36.7822

     occupation numbers 
     1.0000   1.0000   1.0000   1.0000   1.0000   1.0000   1.0000   1.0000
     1.0646   0.0000   0.0000   0.0000

          k = 0.0000 0.5625-0.4375 (   168 PWs)   bands (ev):

   -70.4954 -35.9580 -35.7632 -35.6492  12.9995  14.3742  16.1932  16.3621
    17.7778  21.2515  25.3452  36.6230

     occupation numbers 
     1.0000   1.0000   1.0000   1.0000   1.0000   1.0000   1.0000   1.0000
     0.6575   0.0000   0.0000   0.0000

          k =-0.0625-0.0625 0.2500 (   170 PWs)   bands (ev):

   -70.5616 -35.7340 -35.6666 -35.6332  11.5395  15.1797  15.2250  15.8639
    15.9064  16.5029  37.3092  39.6511

     occupation numbers 
     1.0000   1.0000   1.0000   1.0000   1.0000   1.0000   1.0000   1.0000
     1.0000   1.0000   0.0000   0.0000

          k =-0.0625-0.1250 0.3125 (   168 PWs)   bands (ev):

   -70.5393 -35.7739 -35.6874 -35.6199  12.3852  15.0187  15.1644  15.9004
    16.3001  16.6364  35.4968  38.1873

     occupation numbers 
     1.0000   1.0000   1.0000   1.0000   1.0000   1.0000   1.0000   1.0000
     1.0000   1.0000   0.0000   0.0000

          k =-0.0625-0.1875 0.3750 (   167 PWs)   bands (ev):

   -70.5206 -35.8633 -35.6621 -35.6331  13.0824  14.8219  15.2486  16.0795
    16.6422  17.0871  33.1949  37.0488

     occupation numbers 
     1.0000   1.0000   1.0000   1.0000   1.0000   1.0000   1.0000   1.0000
     1.0000   1.0000   0.0000   0.0000

          k =-0.0625-0.2500 0.4375 (   170 PWs)   bands (ev):

   -70.5240 -35.9578 -35.7155 -35.6626  13.2963  14.6641  15.4925  16.2773
    16.9896  18.0773  30.5916  36.2083

     occupation numbers 
     1.0000   1.0000   1.0000   1.0000   1.0000   1.0000   1.0000   1.0000
     1.0000   0.0007   0.0000   0.0000

          k =-0.0625-0.3125 0.5000 (   171 PWs)   bands (ev):

   -70.5181 -35.9796 -35.7817 -35.6690  13.2408  14.5499  15.7292  16.3272
    17.3843  19.6856  28.0183  35.6487

     occupation numbers 
     1.0000   1.0000   1.0000   1.0000   1.0000   1.0000   1.0000   1.0000
     1.0005   0.0000   0.0000   0.0000

          k =-0.0625 0.6250-0.4375 (   169 PWs)   bands (ev):

   -70.5004 -35.9451 -35.8026 -35.6718  13.1690  14.4896  15.8652  16.3110
    17.6200  21.5006  25.8695  35.3579

     occupation numbers 
     1.0000   1.0000   1.0000   1.0000   1.0000   1.0000   1.0000   1.0000
     1.0813   0.0000   0.0000   0.0000

          k =-0.1250 0.1250 0.1250 (   171 PWs)   bands (ev):

   -70.5726 -35.7086 -35.6407 -35.6407  11.0453  15.0982  15.0982  15.8892
    16.2609  16.2609  38.8282  38.8282

     occupation numbers 
     1.0000   1.0000   1.0000   1.0000   1.0000   1.0000   1.0000   1.0000
     1.0000   1.0000   0.0000   0.0000

          k =-0.1250-0.1250 0.3750 (   167 PWs)   bands (ev):

   -70.5219 -35.8233 -35.7088 -35.6178  13.1138  14.8339  15.1415  15.9213
    16.5949  17.1394  34.1827  36.0869

     occupation numbers 
     1.0000   1.0000   1.0000   1.0000   1.0000   1.0000   1.0000   1.0000
     1.0000   1.0000   0.0000   0.0000

          k =-0.1250-0.1875 0.4375 (   169 PWs)   bands (ev):

   -70.5213 -35.9289 -35.7059 -35.6632  13.5525  14.6500  15.2480  16.0740
    16.7755  18.1319  32.2024  34.5432

     occupation numbers 
     1.0000   1.0000   1.0000   1.0000   1.0000   1.0000   1.0000   1.0000
     1.0000   0.0001   0.0000   0.0000

          k =-0.1250-0.2500 0.5000 (   170 PWs)   bands (ev):

   -70.5149 -35.9906 -35.7309 -35.6792  13.5898  14.5901  15.3680  16.2450
    17.0417  19.5653  29.6786  33.7487

     occupation numbers 
     1.0000   1.0000   1.0000   1.0000   1.0000   1.0000   1.0000   1.0000
     1.0000   0.0000   0.0000   0.0000

          k =-0.1250 0.6875-0.4375 (   168 PWs)   bands (ev):

   -70.4952 -35.9327 -35.7805 -35.6815  13.4928  14.5755  15.4679  16.3063
    17.3165  21.5316  27.1734  33.2925

     occupation numbers 
     1.0000   1.0000   1.0000   1.0000   1.0000   1.0000   1.0000   1.0000
     1.0000   0.0000   0.0000   0.0000

          k =-0.1250 0.6250-0.3750 (   170 PWs)   bands (ev):

   -70.5035 -35.9586 -35.8154 -35.6948  13.4444  14.5682  15.5010  16.3164
    17.4209  22.8076  25.6129  33.1489

     occupation numbers 
     1.0000   1.0000   1.0000   1.0000   1.0000   1.0000   1.0000   1.0000
     1.0017   0.0000   0.0000   0.0000

          k =-0.1875 0.1875 0.1250 (   169 PWs)   bands (ev):

   -70.5543 -35.7699 -35.6558 -35.6163  11.8424  14.9120  15.0063  16.2114
    16.3219  16.3586  36.6929  37.9094

     occupation numbers 
     1.0000   1.0000   1.0000   1.0000   1.0000   1.0000   1.0000   1.0000
     1.0000   1.0000   0.0000   0.0000

          k =-0.1875-0.1875 0.5000 (   172 PWs)   bands (ev):

   -70.5283 -35.9793 -35.7754 -35.7033  13.8467  14.4384  15.2718  16.1824
    16.9027  19.5576  31.1150  32.1979

     occupation numbers 
     1.0000   1.0000   1.0000   1.0000   1.0000   1.0000   1.0000   1.0000
     1.0000   0.0000   0.0000   0.0000

          k =-0.1875 0.7500-0.4375 (   170 PWs)   bands (ev):

   -70.5055 -35.9677 -35.7821 -35.6966  13.8847  14.4443  15.2172  16.3477
    17.0535  21.4209  28.9316  31.1870

     occupation numbers 
     1.0000   1.0000   1.0000   1.0000   1.0000   1.0000   1.0000   1.0000
     1.0000   0.0000   0.0000   0.0000

          k =-0.1875 0.6875-0.3750 (   165 PWs)   bands (ev):

   -70.4726 -35.8893 -35.7700 -35.6794  13.8185  14.5573  15.1354  16.4411
    17.1824  23.4683  26.6563  30.8798

     occupation numbers 
     1.0000   1.0000   1.0000   1.0000   1.0000   1.0000   1.0000   1.0000
     1.0000   0.0000   0.0000   0.0000

          k =-0.2500 0.2500 0.1250 (   167 PWs)   bands (ev):

   -70.5311 -35.8268 -35.6459 -35.6151  12.7096  14.7162  15.0413  16.2308
    16.3776  16.9651  34.3771  37.0584

     occupation numbers 
     1.0000   1.0000   1.0000   1.0000   1.0000   1.0000   1.0000   1.0000
     1.0000   1.0000   0.0000   0.0000

          k =-0.2500 0.1875 0.1875 (   168 PWs)   bands (ev):

   -70.5391 -35.8216 -35.6489 -35.6352  12.6657  14.7914  14.7984  16.2318
    16.3664  16.9859  35.3518  36.2671

     occupation numbers 
     1.0000   1.0000   1.0000   1.0000   1.0000   1.0000   1.0000   1.0000
     1.0000   1.0000   0.0000   0.0000

          k =-0.2500 0.7500-0.3750 (   167 PWs)   bands (ev):

   -70.4796 -35.8788 -35.8173 -35.6897  14.1253  14.3925  14.9811  16.5542
    17.0225  23.5599  28.1296  28.9937

     occupation numbers 
     1.0000   1.0000   1.0000   1.0000   1.0000   1.0000   1.0000   1.0000
     1.0000   0.0000   0.0000   0.0000

          k =-0.2500 0.6875-0.3125 (   161 PWs)   bands (ev):

   -70.4474 -35.8044 -35.7819 -35.6583  14.1639  14.5389  14.7947  16.6808
    16.9819  25.3782  26.5102  28.6065

     occupation numbers 
[...]

   -67.5989 -33.0791 -32.8880 -32.8641  15.7998  16.2427  16.9137  19.5642
    19.7230  23.3892  29.9464  31.8924

     occupation numbers 
     1.0000   1.0000   1.0000   1.0000   1.0000   1.0000   1.0000   0.0000
     0.0000   0.0000   0.0000   0.0000

          k = 0.5000-0.5000 0.2500 (   168 PWs)   bands (ev):

   -67.6204 -33.1004 -32.9833 -32.9130  15.3643  16.1144  17.8553  19.5111
    19.7577  24.2778  27.0666  33.1326

     occupation numbers 
     1.0000   1.0000   1.0000   1.0000   1.0000   1.0000   0.2633   0.0000
     0.0000   0.0000   0.0000   0.0000

          k = 0.5000-0.5625 0.3125 (   165 PWs)   bands (ev):

   -67.6083 -33.0860 -32.9587 -32.8819  15.7501  16.1859  17.3052  19.5937
    19.7531  24.9179  27.8134  31.5897

     occupation numbers 
     1.0000   1.0000   1.0000   1.0000   1.0000   1.0000   1.0000   0.0000
     0.0000   0.0000   0.0000   0.0000

          k = 0.5000-0.6250 0.3750 (   165 PWs)   bands (ev):

   -67.6079 -33.0798 -32.9566 -32.8915  15.8803  16.4080  16.9018  19.6298
    19.7374  25.0220  29.1743  29.9864

     occupation numbers 
     1.0000   1.0000   1.0000   1.0000   1.0000   1.0000   1.0000   0.0000
     0.0000   0.0000   0.0000   0.0000

          k = 0.4375-0.5625 0.3750 (   162 PWs)   bands (ev):

   -67.5907 -33.0095 -32.9691 -32.8916  15.8775  16.4898  16.9516  19.6658
    19.7320  26.5497  27.6849  29.6105

     occupation numbers 
     1.0000   1.0000   1.0000   1.0000   1.0000   1.0000   1.0000   0.0000
     0.0000   0.0000   0.0000   0.0000

          k = 0.0000 0.0000 0.3750 (   164 PWs)   bands (ev):

   -67.6315 -32.9493 -32.8079 -32.8079  13.2171  17.5564  17.5564  18.0323
    18.1573  20.0231  36.5336  39.4525

     occupation numbers 
     1.0000   1.0000   1.0000   1.0000   1.0000   1.0433   1.0433   0.0036
     0.0000   0.0000   0.0000   0.0000

          k = 0.0000-0.0625 0.4375 (   169 PWs)   bands (ev):

   -67.6442 -33.0189 -32.8982 -32.8862  14.0533  17.3737  17.5281  17.9593
    18.5525  20.2428  35.4162  38.0021

     occupation numbers 
     1.0000   1.0000   1.0000   1.0000   1.0000   1.0003   1.0266   0.0311
     0.0000   0.0000   0.0000   0.0000

          k = 0.0000-0.1250 0.5000 (   169 PWs)   bands (ev):

   -67.6279 -33.0985 -32.8988 -32.8949  14.8330  17.0081  17.3926  18.2823
    19.1032  20.6809  33.4097  36.8485

     occupation numbers 
     1.0000   1.0000   1.0000   1.0000   1.0000   1.0000   1.0006   0.0000
     0.0000   0.0000   0.0000   0.0000

          k = 0.0000-0.1875 0.5625 (   169 PWs)   bands (ev):

   -67.6140 -33.1593 -32.9453 -32.8560  15.2536  16.8985  17.2618  18.5268
    19.6177  21.6206  30.9871  36.2226

     occupation numbers 
     1.0000   1.0000   1.0000   1.0000   1.0000   1.0000   1.0000   0.0000
     0.0000   0.0000   0.0000   0.0000

          k = 0.0000-0.2500 0.6250 (   171 PWs)   bands (ev):

   -67.6139 -33.1744 -32.9961 -32.8924  15.3291  17.0196  17.1694  18.5872
    19.9849  23.2385  28.5111  35.8744

     occupation numbers 
     1.0000   1.0000   1.0000   1.0000   1.0000   1.0000   1.0000   0.0000
     0.0000   0.0000   0.0000   0.0000

          k = 0.0000 0.6875-0.3125 (   168 PWs)   bands (ev):

   -67.5985 -33.1350 -33.0028 -32.8848  15.3127  17.1148  17.1372  18.5821
    20.1196  24.4253  27.1306  35.7689

     occupation numbers 
     1.0000   1.0000   1.0000   1.0000   1.0000   1.0000   1.0000   0.0000
     0.0000   0.0000   0.0000   0.0000

          k =-0.0625-0.0625 0.5000 (   165 PWs)   bands (ev):

   -67.6081 -33.0496 -32.8916 -32.8388  14.8291  16.9903  17.6486  18.0623
    18.9323  20.6545  34.5401  36.0997

     occupation numbers 
     1.0000   1.0000   1.0000   1.0000   1.0000   1.0000   1.0797   0.0013
     0.0000   0.0000   0.0000   0.0000

          k =-0.0625-0.1250 0.5625 (   170 PWs)   bands (ev):

   -67.6183 -33.1360 -32.9432 -32.9004  15.3685  16.6322  17.5784  18.3601
    19.3793  21.4878  32.6084  34.7235

     occupation numbers 
     1.0000   1.0000   1.0000   1.0000   1.0000   1.0000   1.0584   0.0000
     0.0000   0.0000   0.0000   0.0000

          k =-0.0625-0.1875 0.6250 (   169 PWs)   bands (ev):

   -67.5974 -33.1323 -32.9803 -32.8884  15.5837  16.5648  17.4488  18.5658
    19.7623  23.0067  30.1570  34.0991

     occupation numbers 
     1.0000   1.0000   1.0000   1.0000   1.0000   1.0000   1.0039   0.0000
     0.0000   0.0000   0.0000   0.0000

          k =-0.0625 0.7500-0.3125 (   167 PWs)   bands (ev):

   -67.5823 -33.1112 -32.9902 -32.8902  15.5543  16.6900  17.3354  18.6255
    20.0031  24.8089  27.9165  33.8204

     occupation numbers 
     1.0000   1.0000   1.0000   1.0000   1.0000   1.0000   1.0001   0.0000
     0.0000   0.0000   0.0000   0.0000

          k =-0.1250-0.1250 0.6250 (   171 PWs)   bands (ev):

   -67.6060 -33.1479 -32.9972 -32.9020  15.7735  16.2885  17.5360  18.6367
    19.5994  22.8940  31.7574  32.3050

     occupation numbers 
     1.0000   1.0000   1.0000   1.0000   1.0000   1.0000   1.0308   0.0000
     0.0000   0.0000   0.0000   0.0000

          k =-0.1250 0.8125-0.3125 (   168 PWs)   bands (ev):

   -67.5798 -33.1024 -33.0060 -32.8942  15.8749  16.2717  17.3481  18.9007
    19.7688  24.7557  29.5538  31.6349

     occupation numbers 
     1.0000   1.0000   1.0000   1.0000   1.0000   1.0000   1.0001   0.0000
     0.0000   0.0000   0.0000   0.0000

          k =-0.1250 0.7500-0.2500 (   163 PWs)   bands (ev):

   -67.5537 -33.0485 -32.9900 -32.8581  15.8252  16.3942  17.2426  18.9798
    19.8493  26.3985  27.7585  31.5041

     occupation numbers 
     1.0000   1.0000   1.0000   1.0000   1.0000   1.0000   1.0000   0.0000
     0.0000   0.0000   0.0000   0.0000

          k =-0.1875 0.8125-0.2500 (   165 PWs)   bands (ev):

   -67.5565 -33.0499 -33.0131 -32.8800  16.0678  16.1489  17.1515  19.2937
    19.6523  26.7977  28.9584  29.5840

     occupation numbers 
     1.0000   1.0000   1.0000   1.0000   1.0000   1.0000   1.0000   0.0000
     0.0000   0.0000   0.0000   0.0000

          k = 0.6250-0.6250 0.3750 (   165 PWs)   bands (ev):

   -67.6094 -33.0894 -32.8909 -32.8909  16.2380  16.2380  16.3737  19.6664
    19.6664  23.3471  31.3475  31.3475

     occupation numbers 
     1.0000   1.0000   1.0000   1.0000   1.0000   1.0000   1.0000   0.0000
     0.0000   0.0000   0.0000   0.0000

          k = 0.5625-0.5625 0.3750 (   165 PWs)   bands (ev):

   -67.6076 -33.0792 -32.9329 -32.9069  16.1485  16.1846  16.8188  19.6866
    19.7485  24.9181  29.3415  30.9754

     occupation numbers 
     1.0000   1.0000   1.0000   1.0000   1.0000   1.0000   1.0000   0.0000
     0.0000   0.0000   0.0000   0.0000

          k = 0.5000-0.5000 0.3750 (   162 PWs)   bands (ev):

   -67.5915 -33.0257 -32.9765 -32.8581  16.1140  16.1774  17.0031  19.7010
    19.7759  26.3297  27.6941  30.8644

     occupation numbers 
     1.0000   1.0000   1.0000   1.0000   1.0000   1.0000   1.0000   0.0000
     0.0000   0.0000   0.0000   0.0000

          k = 0.5000-0.5625 0.4375 (   163 PWs)   bands (ev):

   -67.5949 -33.0343 -32.9315 -32.9163  16.1443  16.4390  16.7104  19.7459
    19.7697  26.6941  28.7410  29.5262

     occupation numbers 
     1.0000   1.0000   1.0000   1.0000   1.0000   1.0000   1.0000   0.0000
     0.0000   0.0000   0.0000   0.0000

          k = 0.0000 0.0000 0.5000 (   168 PWs)   bands (ev):

   -67.6252 -33.0351 -32.9140 -32.9140  14.7658  17.1357  17.8681  17.8681
    18.6382  20.6142  35.3428  37.4060

     occupation numbers 
     1.0000   1.0000   1.0000   1.0000   1.0000   1.0000   0.2148   0.2148
     0.0000   0.0000   0.0000   0.0000

          k = 0.0000-0.0625 0.5625 (   168 PWs)   bands (ev):

   -67.6062 -33.0837 -32.9235 -32.9173  15.3336  16.6708  17.9342  18.1729
    19.0500  21.2846  34.1304  36.2070

     occupation numbers 
     1.0000   1.0000   1.0000   1.0000   1.0000   1.0000   0.0577   0.0000
     0.0000   0.0000   0.0000   0.0000

          k = 0.0000-0.1250 0.6250 (   167 PWs)   bands (ev):

   -67.5841 -33.0901 -32.9720 -32.8899  15.6312  16.3598  17.8761  18.4332
    19.5490  22.5626  31.8240  35.5709

     occupation numbers 
     1.0000   1.0000   1.0000   1.0000   1.0000   1.0000   0.1874   0.0000
     0.0000   0.0000   0.0000   0.0000

          k = 0.0000-0.1875 0.6875 (   167 PWs)   bands (ev):

   -67.5758 -33.1127 -32.9879 -32.8915  15.6183  16.3211  17.8199  18.5201
    19.9317  24.3415  29.3378  35.0173

     occupation numbers 
     1.0000   1.0000   1.0000   1.0000   1.0000   1.0000   0.4282   0.0000
     0.0000   0.0000   0.0000   0.0000

          k = 0.0000 0.7500-0.2500 (   164 PWs)   bands (ev):

   -67.5565 -33.0741 -33.0070 -32.8590  15.5769  16.3588  17.8001  18.5459
    20.0690  25.9344  27.6073  34.8070

     occupation numbers 
     1.0000   1.0000   1.0000   1.0000   1.0000   1.0000   0.5338   0.0000
     0.0000   0.0000   0.0000   0.0000

          k =-0.0625-0.0625 0.6250 (   171 PWs)   bands (ev):

   -67.6063 -33.1233 -33.0008 -32.9326  15.6339  16.2711  18.0506  18.4550
    19.3643  22.3396  33.2607  34.0252

     occupation numbers 
     1.0000   1.0000   1.0000   1.0000   1.0000   1.0000   0.0019   0.0000
     0.0000   0.0000   0.0000   0.0000

          k =-0.0625-0.1250 0.6875 (   166 PWs)   bands (ev):

   -67.5621 -33.0764 -32.9955 -32.8930  15.7485  16.0337  17.9952  18.7467
    19.7196  24.1121  31.1064  33.1148

     occupation numbers 
     1.0000   1.0000   1.0000   1.0000   1.0000   1.0000   0.0115   0.0000
     0.0000   0.0000   0.0000   0.0000

          k =-0.0625 0.8125-0.2500 (   167 PWs)   bands (ev):

   -67.5622 -33.0890 -33.0294 -32.8967  15.6501  16.0365  17.9324  18.8641
    19.9477  26.0559  28.7220  32.7584

     occupation numbers 
     1.0000   1.0000   1.0000   1.0000   1.0000   1.0000   0.0601   0.0000
     0.0000   0.0000   0.0000   0.0000

          k =-0.1250 0.8750-0.2500 (   171 PWs)   bands (ev):

   -67.5756 -33.1097 -33.0883 -32.9157  15.7810  15.8117  17.9206  19.1703
    19.7794  25.9542  30.3849  30.8231

     occupation numbers 
     1.0000   1.0000   1.0000   1.0000   1.0000   1.0000   0.0783   0.0000
     0.0000   0.0000   0.0000   0.0000

          k =-0.1250 0.8125-0.1875 (   167 PWs)   bands (ev):

   -67.5512 -33.0718 -33.0537 -32.8960  15.7037  15.8316  17.8818  19.3603
    19.7875  27.8726  28.5574  30.4932

     occupation numbers 
     1.0000   1.0000   1.0000   1.0000   1.0000   1.0000   0.1695   0.0000
     0.0000   0.0000   0.0000   0.0000

          k = 0.5000-0.5000 0.5000 (   152 PWs)   bands (ev):

   -67.5373 -32.8713 -32.8713 -32.8713  16.4673  16.4673  16.4673  19.7903
    19.7903  28.6205  28.6205  28.6205

     occupation numbers 
     1.0000   1.0000   1.0000   1.0000   1.0000   1.0000   1.0000   0.0000
     0.0000   0.0000   0.0000   0.0000

          k = 0.0000 0.0000 0.6250 (   168 PWs)   bands (ev):

   -67.5940 -33.0569 -32.9597 -32.9597  15.5749  16.2710  18.3860  18.3860
    19.1311  22.1777  34.6043  35.2953

     occupation numbers 
     1.0000   1.0000   1.0000   1.0000   1.0000   1.0000   0.0000   0.0000
     0.0000   0.0000   0.0000   0.0000

          k = 0.0000-0.0625 0.6875 (   168 PWs)   bands (ev):

   -67.5695 -33.0283 -33.0098 -32.9827  15.6612  15.9129  18.5335  18.6793
    19.5011  23.7134  32.7535  34.2593

     occupation numbers 
     1.0000   1.0000   1.0000   1.0000   1.0000   1.0000   0.0000   0.0000
     0.0000   0.0000   0.0000   0.0000

          k = 0.0000-0.1250 0.7500 (   168 PWs)   bands (ev):

   -67.5593 -33.0907 -33.0306 -32.9371  15.5685  15.7554  18.5364  18.8531
    19.8723  25.5867  30.3322  33.6175

     occupation numbers 
     1.0000   1.0000   1.0000   1.0000   1.0000   1.0000   0.0000   0.0000
     0.0000   0.0000   0.0000   0.0000

          k = 0.0000 0.8125-0.1875 (   168 PWs)   bands (ev):

   -67.5526 -33.1025 -33.0606 -32.9065  15.4943  15.7352  18.5261  18.9217
    20.0138  27.4274  28.3644  33.3663

     occupation numbers 
     1.0000   1.0000   1.0000   1.0000   1.0000   1.0000   0.0000   0.0000
     0.0000   0.0000   0.0000   0.0000

          k =-0.0625-0.0625 0.7500 (   168 PWs)   bands (ev):

   -67.5550 -33.0832 -33.0694 -32.9211  15.5828  15.6167  18.6464  19.0876
    19.7213  25.4619  31.9066  32.3087

     occupation numbers 
     1.0000   1.0000   1.0000   1.0000   1.0000   1.0000   0.0000   0.0000
     0.0000   0.0000   0.0000   0.0000

          k =-0.0625 0.8750-0.1875 (   169 PWs)   bands (ev):

   -67.5543 -33.1008 -33.0801 -32.9348  15.4438  15.5309  18.6418  19.3224
    19.9010  27.4375  29.7703  31.7464

     occupation numbers 
     1.0000   1.0000   1.0000   1.0000   1.0000   1.0000   0.0000   0.0000
     0.0000   0.0000   0.0000   0.0000

          k =-0.1250 0.8750-0.1250 (   167 PWs)   bands (ev):

   -67.5426 -33.0568 -33.0568 -32.9649  15.4256  15.4256  18.6379  19.7302
    19.7302  29.3778  29.3778  29.9896

     occupation numbers 
     1.0000   1.0000   1.0000   1.0000   1.0000   1.0000   0.0000   0.0000
     0.0000   0.0000   0.0000   0.0000

          k = 0.0000 0.0000 0.7500 (   172 PWs)   bands (ev):

   -67.5743 -33.0835 -33.0835 -33.0175  15.4981  15.5616  19.0578  19.0578
    19.5415  25.2535  33.1153  33.1153

     occupation numbers 
     1.0000   1.0000   1.0000   1.0000   1.0000   1.0000   0.0000   0.0000
     0.0000   0.0000   0.0000   0.0000

          k = 0.0000-0.0625 0.8125 (   173 PWs)   bands (ev):

   -67.5736 -33.1065 -33.0814 -33.0580  15.3212  15.3491  19.2035  19.3198
    19.8252  27.0174  31.3292  32.4507

     occupation numbers 
     1.0000   1.0000   1.0000   1.0000   1.0000   1.0000   0.0000   0.0000
     0.0000   0.0000   0.0000   0.0000

          k = 0.0000 0.8750-0.1250 (   174 PWs)   bands (ev):

   -67.5763 -33.1106 -33.0992 -33.0805  15.2379  15.2952  19.2120  19.4123
    19.9683  28.9152  29.3210  32.1752

     occupation numbers 
     1.0000   1.0000   1.0000   1.0000   1.0000   1.0000   0.0000   0.0000
     0.0000   0.0000   0.0000   0.0000

          k =-0.0625 0.9375-0.1250 (   172 PWs)   bands (ev):

   -67.5639 -33.0941 -33.0876 -33.0696  15.1821  15.1972  19.2963  19.6823
    19.8964  28.8931  30.8286  30.9909

     occupation numbers 
     1.0000   1.0000   1.0000   1.0000   1.0000   1.0000   0.0000   0.0000
     0.0000   0.0000   0.0000   0.0000

          k = 0.0000 0.0000 0.8750 (   172 PWs)   bands (ev):

   -67.5628 -33.1221 -33.0723 -33.0723  15.1009  15.1129  19.6658  19.6658
    19.8396  28.6188  31.7365  31.7365

     occupation numbers 
     1.0000   1.0000   1.0000   1.0000   1.0000   1.0000   0.0000   0.0000
     0.0000   0.0000   0.0000   0.0000

          k = 0.0000 0.9375-0.0625 (   170 PWs)   bands (ev):

   -67.5492 -33.1093 -33.0737 -33.0458  15.0228  15.0309  19.7332  19.7932
    19.9513  30.4096  30.4733  31.4726

     occupation numbers 
     1.0000   1.0000   1.0000   1.0000   1.0000   1.0000   0.0000   0.0000
     0.0000   0.0000   0.0000   0.0000

          k = 0.0000 0.0000-1.0000 (   164 PWs)   bands (ev):

   -67.5182 -33.0327 -33.0327 -33.0327  14.9422  14.9422  19.9434  19.9434
    19.9434  31.2593  31.2593  31.2593

     occupation numbers 
     1.0000   1.0000   1.0000   1.0000   1.0000   1.0000   0.0000   0.0000
     0.0000   0.0000   0.0000   0.0000

     the Fermi energy is    17.8253 ev

!    total energy              =    -328.72314096 Ry

     total all-electron energy =     -2545.019676 Ry
     estimated scf accuracy    <          6.9E-09 Ry
     smearing contrib. (-TS)   =       0.00008171 Ry
     internal energy E=F+TS    =    -328.72322267 Ry

     The total energy is F=E-TS. E is the sum of the following terms:
     one-electron contribution =    -112.88704467 Ry
     hartree contribution      =      66.88494925 Ry
     xc contribution           =     -34.80060537 Ry
     ewald contribution        =    -171.88999324 Ry
     one-center paw contrib.   =     -76.03052865 Ry
      -> PAW hartree energy AE =     219.36096670 Ry
      -> PAW hartree energy PS =    -218.61891546 Ry
      -> PAW xc energy AE      =    -111.62382551 Ry
      -> PAW xc energy PS      =      34.85124561 Ry
      -> total E_H with PAW    =      67.62700050 Ry
      -> total E_XC with PAW   =    -111.57318527 Ry

     total magnetization       =     2.46 Bohr mag/cell
     absolute magnetization    =     2.56 Bohr mag/cell

     convergence has been achieved in  16 iterations

     Writing all to output data dir ./tmp/fe.save/
 
     init_run     :      0.39s CPU      0.45s WALL (       1 calls)
     electrons    :      8.42s CPU      8.81s WALL (       1 calls)

     Called by init_run:
     wfcinit      :      0.14s CPU      0.15s WALL (       1 calls)
     wfcinit:atom :      0.00s CPU      0.00s WALL (     145 calls)
     wfcinit:wfcr :      0.12s CPU      0.14s WALL (     145 calls)
     potinit      :      0.13s CPU      0.15s WALL (       1 calls)
     hinit0       :      0.13s CPU      0.14s WALL (       1 calls)

     Called by electrons:
     c_bands      :      5.37s CPU      5.55s WALL (      16 calls)
     sum_band     :      1.08s CPU      1.11s WALL (      16 calls)
     v_of_rho     :      0.13s CPU      0.14s WALL (      17 calls)
     v_h          :      0.00s CPU      0.00s WALL (      17 calls)
     v_xc         :      0.13s CPU      0.13s WALL (      17 calls)
     newd         :      0.04s CPU      0.05s WALL (      17 calls)
     PAW_pot      :      1.88s CPU      2.06s WALL (      17 calls)
     mix_rho      :      0.01s CPU      0.02s WALL (      16 calls)

     Called by c_bands:
     init_us_2    :      0.13s CPU      0.14s WALL (    4785 calls)
     init_us_2:cp :      0.13s CPU      0.13s WALL (    4785 calls)
     cegterg      :      4.62s CPU      4.78s WALL (    2320 calls)

     Called by sum_band:
     sum_band:wei :      0.06s CPU      0.06s WALL (      16 calls)
     sum_band:loo :      0.92s CPU      0.95s WALL (      16 calls)
     sum_band:buf :      0.01s CPU      0.01s WALL (    2320 calls)
     sum_band:ini :      0.06s CPU      0.06s WALL (    2320 calls)
     sum_band:cal :      0.03s CPU      0.03s WALL (    2320 calls)
     sum_band:bec :      0.01s CPU      0.01s WALL (    2320 calls)
     addusdens    :      0.07s CPU      0.07s WALL (      16 calls)
     addusd:skk   :      0.00s CPU      0.00s WALL (      16 calls)
     addusd:dgemm :      0.01s CPU      0.01s WALL (      32 calls)
     addusd:qvan2 :      0.05s CPU      0.05s WALL (      32 calls)

     Called by *egterg:
     cdiaghg      :      0.61s CPU      0.65s WALL (    6116 calls)
     cegterg:over :      0.10s CPU      0.11s WALL (    3796 calls)
     cegterg:upda :      0.05s CPU      0.05s WALL (    3796 calls)
     cegterg:last :      0.07s CPU      0.08s WALL (    3392 calls)
     h_psi        :      3.71s CPU      3.83s WALL (    6261 calls)
     s_psi        :      0.06s CPU      0.06s WALL (    6261 calls)
     g_psi        :      0.02s CPU      0.02s WALL (    3796 calls)

     Called by h_psi:
     h_psi:calbec :      0.08s CPU      0.08s WALL (    6261 calls)
     vloc_psi     :      3.54s CPU      3.65s WALL (    6261 calls)
     add_vuspsi   :      0.07s CPU      0.07s WALL (    6261 calls)

     General routines
     calbec       :      0.10s CPU      0.10s WALL (    8581 calls)
     fft          :      0.04s CPU      0.04s WALL (     419 calls)
     ffts         :      0.00s CPU      0.00s WALL (      66 calls)
     fftw         :      3.99s CPU      4.12s WALL (  151684 calls)
     interpolate  :      0.00s CPU      0.01s WALL (      34 calls)
 
     Parallel routines

     PAW routines
     PAW_pot      :      1.88s CPU      2.06s WALL (      17 calls)
     PAW_symme    :      0.02s CPU      0.02s WALL (      33 calls)
 
     PWSCF        :      8.91s CPU      9.43s WALL

 
   This run was terminated on:   9: 9:44  28Oct2023            

=------------------------------------------------------------------------------=
   JOB DONE.
=------------------------------------------------------------------------------=
