
     Program PWSCF v.7.0 starts on 28Oct2023 at  9: 9:44 

     This program is part of the open-source Quantum ESPRESSO suite
     for quantum simulation of materials; please cite
         "P. Giannozzi et al., J. Phys.:Condens. Matter 21 395502 (2009);
         "P. Giannozzi et al., J. Phys.:Condens. Matter 29 465901 (2017);
         "P. Giannozzi et al., J. Chem. Phys. 152 154105 (2020);
          URL http://www.quantum-espresso.org", 
     in publications or presentations arising from this work. More details at
     http://www.quantum-espresso.org/quote

     Parallel version (MPI), running on     2 processors

     MPI processes distributed on     1 nodes
     K-points division:     npool     =       2
     13122 MiB available memory on the printing compute node when the environment starts
 
     Reading input from espresso_pwbands.inp

     Current dimensions of program PWSCF are:
     Max number of different atomic species (ntypx) = 10
     Max number of k-points (npk) =  40000
     Max angular momentum in pseudopotentials (lmaxx) =  4

     Atomic positions and unit cell read from directory:
     ./tmp/fe.save/
 
     file Fe.pbe-spn-kjpaw_psl.0.2.1.UPF: wavefunction(s)  3D renormalized

     Subspace diagonalization in iterative solution of the eigenvalue problem:
     a serial algorithm will be used

 
     G-vector sticks info
     --------------------
     sticks:   dense  smooth     PW     G-vecs:    dense   smooth      PW
     Sum         333     169     83                 3805     1409     459
 
     Using Slab Decomposition
 


     bravais-lattice index     =            3
     lattice parameter (alat)  =       5.4200  a.u.
     unit-cell volume          =      79.6100 (a.u.)^3
     number of atoms/cell      =            1
     number of atomic types    =            1
     number of electrons       =        16.00
     number of Kohn-Sham states=           12
     kinetic-energy cutoff     =      25.0000  Ry
     charge density cutoff     =     200.0000  Ry
     Exchange-correlation= SLA  PW   PBX  PBC
                           (   1   4   3   4   0   0   0)

     celldm(1)=   5.420000  celldm(2)=   0.000000  celldm(3)=   0.000000
     celldm(4)=   0.000000  celldm(5)=   0.000000  celldm(6)=   0.000000

     crystal axes: (cart. coord. in units of alat)
               a(1) = (   0.500000   0.500000   0.500000 )  
               a(2) = (  -0.500000   0.500000   0.500000 )  
               a(3) = (  -0.500000  -0.500000   0.500000 )  

     reciprocal axes: (cart. coord. in units 2 pi/alat)
               b(1) = (  1.000000  0.000000  1.000000 )  
               b(2) = ( -1.000000  1.000000  0.000000 )  
               b(3) = (  0.000000 -1.000000  1.000000 )  


     PseudoPot. # 1 for Fe read from file:
     ./Fe.pbe-spn-kjpaw_psl.0.2.1.UPF
     MD5 check sum: e86618425769142926afa95317d90200
     Pseudo is Projector augmented-wave + core cor, Zval = 16.0
     Generated using "atomic" code by A. Dal Corso  v.5.0.99 svn rev. 10869
     Shape of augmentation charge: PSQ
     Using radial grid of 1191 points,  6 beta functions with: 
                l(1) =   0
                l(2) =   0
                l(3) =   1
                l(4) =   1
                l(5) =   2
                l(6) =   2
     Q(r) pseudized with 0 coefficients 


     atomic species   valence    mass     pseudopotential
        Fe            16.00     1.00000     Fe( 1.00)

     Starting magnetic structure 
     atomic species   magnetization
        Fe           0.600

     48 Sym. Ops., with inversion, found


                                    s                        frac. trans.

      isym =  1     identity                                     

 cryst.   s( 1) = (     1          0          0      )
                  (     0          1          0      )
                  (     0          0          1      )

 cart.    s( 1) = (  1.0000000  0.0000000  0.0000000 )
                  (  0.0000000  1.0000000  0.0000000 )
                  (  0.0000000  0.0000000  1.0000000 )


      isym =  2     180 deg rotation - cart. axis [0,0,1]        

 cryst.   s( 2) = (     0          0          1      )
                  (     1         -1          1      )
                  (     1          0          0      )

 cart.    s( 2) = ( -1.0000000  0.0000000  0.0000000 )
                  (  0.0000000 -1.0000000  0.0000000 )
                  (  0.0000000  0.0000000  1.0000000 )


      isym =  3     180 deg rotation - cart. axis [0,1,0]        

 cryst.   s( 3) = (    -1          1         -1      )
                  (     0          0         -1      )
                  (     0         -1          0      )

 cart.    s( 3) = ( -1.0000000  0.0000000  0.0000000 )
                  (  0.0000000  1.0000000  0.0000000 )
                  (  0.0000000  0.0000000 -1.0000000 )


      isym =  4     180 deg rotation - cart. axis [1,0,0]        

 cryst.   s( 4) = (     0         -1          0      )
                  (    -1          0          0      )
                  (    -1          1         -1      )

 cart.    s( 4) = (  1.0000000  0.0000000  0.0000000 )
                  (  0.0000000 -1.0000000  0.0000000 )
                  (  0.0000000  0.0000000 -1.0000000 )


      isym =  5     180 deg rotation - cart. axis [1,1,0]        

 cryst.   s( 5) = (     0          0         -1      )
                  (     0         -1          0      )
                  (    -1          0          0      )

 cart.    s( 5) = (  0.0000000  1.0000000  0.0000000 )
                  (  1.0000000  0.0000000  0.0000000 )
                  (  0.0000000  0.0000000 -1.0000000 )


      isym =  6     180 deg rotation - cart. axis [1,-1,0]       

 cryst.   s( 6) = (    -1          0          0      )
                  (    -1          1         -1      )
                  (     0          0         -1      )

 cart.    s( 6) = (  0.0000000 -1.0000000  0.0000000 )
                  ( -1.0000000  0.0000000  0.0000000 )
                  (  0.0000000  0.0000000 -1.0000000 )


      isym =  7      90 deg rotation - cart. axis [0,0,-1]       

 cryst.   s( 7) = (     1         -1          1      )
                  (     1          0          0      )
                  (     0          1          0      )

 cart.    s( 7) = (  0.0000000  1.0000000  0.0000000 )
                  ( -1.0000000  0.0000000  0.0000000 )
                  (  0.0000000  0.0000000  1.0000000 )


      isym =  8      90 deg rotation - cart. axis [0,0,1]        

 cryst.   s( 8) = (     0          1          0      )
                  (     0          0          1      )
                  (     1         -1          1      )

 cart.    s( 8) = (  0.0000000 -1.0000000  0.0000000 )
                  (  1.0000000  0.0000000  0.0000000 )
                  (  0.0000000  0.0000000  1.0000000 )


      isym =  9     180 deg rotation - cart. axis [1,0,1]        

 cryst.   s( 9) = (     1         -1          1      )
                  (     0         -1          0      )
                  (     0          0         -1      )

 cart.    s( 9) = (  0.0000000  0.0000000  1.0000000 )
                  (  0.0000000 -1.0000000  0.0000000 )
                  (  1.0000000  0.0000000  0.0000000 )


      isym = 10     180 deg rotation - cart. axis [-1,0,1]       

 cryst.   s(10) = (    -1          0          0      )
                  (     0          0          1      )
                  (     0          1          0      )

 cart.    s(10) = (  0.0000000  0.0000000 -1.0000000 )
                  (  0.0000000 -1.0000000  0.0000000 )
                  ( -1.0000000  0.0000000  0.0000000 )


      isym = 11      90 deg rotation - cart. axis [0,1,0]        

 cryst.   s(11) = (     0          0         -1      )
                  (     1          0          0      )
                  (     1         -1          1      )

 cart.    s(11) = (  0.0000000  0.0000000  1.0000000 )
                  (  0.0000000  1.0000000  0.0000000 )
                  ( -1.0000000  0.0000000  0.0000000 )


      isym = 12      90 deg rotation - cart. axis [0,-1,0]       

 cryst.   s(12) = (     0          1          0      )
                  (    -1          1         -1      )
                  (    -1          0          0      )

 cart.    s(12) = (  0.0000000  0.0000000 -1.0000000 )
                  (  0.0000000  1.0000000  0.0000000 )
                  (  1.0000000  0.0000000  0.0000000 )


      isym = 13     180 deg rotation - cart. axis [0,1,1]        

 cryst.   s(13) = (     0          1          0      )
                  (     1          0          0      )
                  (     0          0         -1      )

 cart.    s(13) = ( -1.0000000  0.0000000  0.0000000 )
                  (  0.0000000  0.0000000  1.0000000 )
                  (  0.0000000  1.0000000  0.0000000 )


      isym = 14     180 deg rotation - cart. axis [0,1,-1]       

 cryst.   s(14) = (    -1          0          0      )
                  (     0         -1          0      )
                  (     1         -1          1      )

 cart.    s(14) = ( -1.0000000  0.0000000  0.0000000 )
                  (  0.0000000  0.0000000 -1.0000000 )
                  (  0.0000000 -1.0000000  0.0000000 )


      isym = 15      90 deg rotation - cart. axis [-1,0,0]       

 cryst.   s(15) = (     0          0         -1      )
                  (    -1          1         -1      )
                  (     0          1          0      )

 cart.    s(15) = (  1.0000000  0.0000000  0.0000000 )
                  (  0.0000000  0.0000000  1.0000000 )
                  (  0.0000000 -1.0000000  0.0000000 )


      isym = 16      90 deg rotation - cart. axis [1,0,0]        

 cryst.   s(16) = (     1         -1          1      )
                  (     0          0          1      )
                  (    -1          0          0      )

 cart.    s(16) = (  1.0000000  0.0000000  0.0000000 )
                  (  0.0000000  0.0000000 -1.0000000 )
                  (  0.0000000  1.0000000  0.0000000 )


      isym = 17     120 deg rotation - cart. axis [-1,-1,-1]     

 cryst.   s(17) = (     1          0          0      )
                  (     0          0         -1      )
                  (    -1          1         -1      )

 cart.    s(17) = (  0.0000000  1.0000000  0.0000000 )
                  (  0.0000000  0.0000000  1.0000000 )
                  (  1.0000000  0.0000000  0.0000000 )


      isym = 18     120 deg rotation - cart. axis [-1,1,1]       

 cryst.   s(18) = (    -1          1         -1      )
                  (     0          1          0      )
                  (     1          0          0      )

 cart.    s(18) = (  0.0000000 -1.0000000  0.0000000 )
                  (  0.0000000  0.0000000  1.0000000 )
                  ( -1.0000000  0.0000000  0.0000000 )


      isym = 19     120 deg rotation - cart. axis [1,1,-1]       

 cryst.   s(19) = (     0         -1          0      )
                  (     1         -1          1      )
                  (     0          0          1      )

 cart.    s(19) = (  0.0000000  1.0000000  0.0000000 )
                  (  0.0000000  0.0000000 -1.0000000 )
                  ( -1.0000000  0.0000000  0.0000000 )


      isym = 20     120 deg rotation - cart. axis [1,-1,1]       

 cryst.   s(20) = (     0          0          1      )
                  (    -1          0          0      )
                  (     0         -1          0      )

 cart.    s(20) = (  0.0000000 -1.0000000  0.0000000 )
                  (  0.0000000  0.0000000 -1.0000000 )
                  (  1.0000000  0.0000000  0.0000000 )


      isym = 21     120 deg rotation - cart. axis [1,1,1]        

 cryst.   s(21) = (     1          0          0      )
                  (     1         -1          1      )
                  (     0         -1          0      )

 cart.    s(21) = (  0.0000000  0.0000000  1.0000000 )
                  (  1.0000000  0.0000000  0.0000000 )
                  (  0.0000000  1.0000000  0.0000000 )


      isym = 22     120 deg rotation - cart. axis [-1,1,-1]      

 cryst.   s(22) = (     0         -1          0      )
                  (     0          0         -1      )
                  (     1          0          0      )

 cart.    s(22) = (  0.0000000  0.0000000  1.0000000 )
                  ( -1.0000000  0.0000000  0.0000000 )
                  (  0.0000000 -1.0000000  0.0000000 )


      isym = 23     120 deg rotation - cart. axis [1,-1,-1]      

 cryst.   s(23) = (     0          0          1      )
                  (     0          1          0      )
                  (    -1          1         -1      )

 cart.    s(23) = (  0.0000000  0.0000000 -1.0000000 )
                  ( -1.0000000  0.0000000  0.0000000 )
                  (  0.0000000  1.0000000  0.0000000 )


      isym = 24     120 deg rotation - cart. axis [-1,-1,1]      

 cryst.   s(24) = (    -1          1         -1      )
                  (    -1          0          0      )
                  (     0          0          1      )

 cart.    s(24) = (  0.0000000  0.0000000 -1.0000000 )
                  (  1.0000000  0.0000000  0.0000000 )
                  (  0.0000000 -1.0000000  0.0000000 )


      isym = 25     inversion                                    

 cryst.   s(25) = (    -1          0          0      )
                  (     0         -1          0      )
                  (     0          0         -1      )

 cart.    s(25) = ( -1.0000000  0.0000000  0.0000000 )
                  (  0.0000000 -1.0000000  0.0000000 )
                  (  0.0000000  0.0000000 -1.0000000 )


      isym = 26     inv. 180 deg rotation - cart. axis [0,0,1]   

 cryst.   s(26) = (     0          0         -1      )
                  (    -1          1         -1      )
                  (    -1          0          0      )

 cart.    s(26) = (  1.0000000  0.0000000  0.0000000 )
                  (  0.0000000  1.0000000  0.0000000 )
                  (  0.0000000  0.0000000 -1.0000000 )


      isym = 27     inv. 180 deg rotation - cart. axis [0,1,0]   

 cryst.   s(27) = (     1         -1          1      )
                  (     0          0          1      )
                  (     0          1          0      )

 cart.    s(27) = (  1.0000000  0.0000000  0.0000000 )
                  (  0.0000000 -1.0000000  0.0000000 )
                  (  0.0000000  0.0000000  1.0000000 )


      isym = 28     inv. 180 deg rotation - cart. axis [1,0,0]   

 cryst.   s(28) = (     0          1          0      )
                  (     1          0          0      )
                  (     1         -1          1      )

 cart.    s(28) = ( -1.0000000  0.0000000  0.0000000 )
                  (  0.0000000  1.0000000  0.0000000 )
                  (  0.0000000  0.0000000  1.0000000 )


      isym = 29     inv. 180 deg rotation - cart. axis [1,1,0]   

 cryst.   s(29) = (     0          0          1      )
                  (     0          1          0      )
                  (     1          0          0      )

 cart.    s(29) = (  0.0000000 -1.0000000  0.0000000 )
                  ( -1.0000000  0.0000000  0.0000000 )
                  (  0.0000000  0.0000000  1.0000000 )


      isym = 30     inv. 180 deg rotation - cart. axis [1,-1,0]  

 cryst.   s(30) = (     1          0          0      )
                  (     1         -1          1      )
                  (     0          0          1      )

 cart.    s(30) = (  0.0000000  1.0000000  0.0000000 )
                  (  1.0000000  0.0000000  0.0000000 )
                  (  0.0000000  0.0000000  1.0000000 )


      isym = 31     inv.  90 deg rotation - cart. axis [0,0,-1]  

 cryst.   s(31) = (    -1          1         -1      )
                  (    -1          0          0      )
                  (     0         -1          0      )

 cart.    s(31) = (  0.0000000 -1.0000000  0.0000000 )
                  (  1.0000000  0.0000000  0.0000000 )
                  (  0.0000000  0.0000000 -1.0000000 )


      isym = 32     inv.  90 deg rotation - cart. axis [0,0,1]   

 cryst.   s(32) = (     0         -1          0      )
                  (     0          0         -1      )
                  (    -1          1         -1      )

 cart.    s(32) = (  0.0000000  1.0000000  0.0000000 )
                  ( -1.0000000  0.0000000  0.0000000 )
                  (  0.0000000  0.0000000 -1.0000000 )


      isym = 33     inv. 180 deg rotation - cart. axis [1,0,1]   

 cryst.   s(33) = (    -1          1         -1      )
                  (     0          1          0      )
                  (     0          0          1      )

 cart.    s(33) = (  0.0000000  0.0000000 -1.0000000 )
                  (  0.0000000  1.0000000  0.0000000 )
                  ( -1.0000000  0.0000000  0.0000000 )


      isym = 34     inv. 180 deg rotation - cart. axis [-1,0,1]  

 cryst.   s(34) = (     1          0          0      )
                  (     0          0         -1      )
                  (     0         -1          0      )

 cart.    s(34) = (  0.0000000  0.0000000  1.0000000 )
                  (  0.0000000  1.0000000  0.0000000 )
                  (  1.0000000  0.0000000  0.0000000 )


      isym = 35     inv.  90 deg rotation - cart. axis [0,1,0]   

 cryst.   s(35) = (     0          0          1      )
                  (    -1          0          0      )
                  (    -1          1         -1      )

 cart.    s(35) = (  0.0000000  0.0000000 -1.0000000 )
                  (  0.0000000 -1.0000000  0.0000000 )
                  (  1.0000000  0.0000000  0.0000000 )


      isym = 36     inv.  90 deg rotation - cart. axis [0,-1,0]  

 cryst.   s(36) = (     0         -1          0      )
                  (     1         -1          1      )
                  (     1          0          0      )

 cart.    s(36) = (  0.0000000  0.0000000  1.0000000 )
                  (  0.0000000 -1.0000000  0.0000000 )
                  ( -1.0000000  0.0000000  0.0000000 )


      isym = 37     inv. 180 deg rotation - cart. axis [0,1,1]   

 cryst.   s(37) = (     0         -1          0      )
                  (    -1          0          0      )
                  (     0          0          1      )

 cart.    s(37) = (  1.0000000  0.0000000  0.0000000 )
                  (  0.0000000  0.0000000 -1.0000000 )
                  (  0.0000000 -1.0000000  0.0000000 )


      isym = 38     inv. 180 deg rotation - cart. axis [0,1,-1]  

 cryst.   s(38) = (     1          0          0      )
                  (     0          1          0      )
                  (    -1          1         -1      )

 cart.    s(38) = (  1.0000000  0.0000000  0.0000000 )
                  (  0.0000000  0.0000000  1.0000000 )
                  (  0.0000000  1.0000000  0.0000000 )


      isym = 39     inv.  90 deg rotation - cart. axis [-1,0,0]  

 cryst.   s(39) = (     0          0          1      )
                  (     1         -1          1      )
                  (     0         -1          0      )

 cart.    s(39) = ( -1.0000000  0.0000000  0.0000000 )
                  (  0.0000000  0.0000000 -1.0000000 )
                  (  0.0000000  1.0000000  0.0000000 )


      isym = 40     inv.  90 deg rotation - cart. axis [1,0,0]   

 cryst.   s(40) = (    -1          1         -1      )
                  (     0          0         -1      )
                  (     1          0          0      )

 cart.    s(40) = ( -1.0000000  0.0000000  0.0000000 )
                  (  0.0000000  0.0000000  1.0000000 )
                  (  0.0000000 -1.0000000  0.0000000 )


      isym = 41     inv. 120 deg rotation - cart. axis [-1,-1,-1]

 cryst.   s(41) = (    -1          0          0      )
                  (     0          0          1      )
                  (     1         -1          1      )

 cart.    s(41) = (  0.0000000 -1.0000000  0.0000000 )
                  (  0.0000000  0.0000000 -1.0000000 )
                  ( -1.0000000  0.0000000  0.0000000 )


      isym = 42     inv. 120 deg rotation - cart. axis [-1,1,1]  

 cryst.   s(42) = (     1         -1          1      )
                  (     0         -1          0      )
                  (    -1          0          0      )

 cart.    s(42) = (  0.0000000  1.0000000  0.0000000 )
                  (  0.0000000  0.0000000 -1.0000000 )
                  (  1.0000000  0.0000000  0.0000000 )


      isym = 43     inv. 120 deg rotation - cart. axis [1,1,-1]  

 cryst.   s(43) = (     0          1          0      )
                  (    -1          1         -1      )
                  (     0          0         -1      )

 cart.    s(43) = (  0.0000000 -1.0000000  0.0000000 )
                  (  0.0000000  0.0000000  1.0000000 )
                  (  1.0000000  0.0000000  0.0000000 )


      isym = 44     inv. 120 deg rotation - cart. axis [1,-1,1]  

 cryst.   s(44) = (     0          0         -1      )
                  (     1          0          0      )
                  (     0          1          0      )

 cart.    s(44) = (  0.0000000  1.0000000  0.0000000 )
                  (  0.0000000  0.0000000  1.0000000 )
                  ( -1.0000000  0.0000000  0.0000000 )


      isym = 45     inv. 120 deg rotation - cart. axis [1,1,1]   

 cryst.   s(45) = (    -1          0          0      )
                  (    -1          1         -1      )
                  (     0          1          0      )

 cart.    s(45) = (  0.0000000  0.0000000 -1.0000000 )
                  ( -1.0000000  0.0000000  0.0000000 )
                  (  0.0000000 -1.0000000  0.0000000 )


      isym = 46     inv. 120 deg rotation - cart. axis [-1,1,-1] 

 cryst.   s(46) = (     0          1          0      )
                  (     0          0          1      )
                  (    -1          0          0      )

 cart.    s(46) = (  0.0000000  0.0000000 -1.0000000 )
                  (  1.0000000  0.0000000  0.0000000 )
                  (  0.0000000  1.0000000  0.0000000 )


      isym = 47     inv. 120 deg rotation - cart. axis [1,-1,-1] 

 cryst.   s(47) = (     0          0         -1      )
                  (     0         -1          0      )
                  (     1         -1          1      )

 cart.    s(47) = (  0.0000000  0.0000000  1.0000000 )
                  (  1.0000000  0.0000000  0.0000000 )
                  (  0.0000000 -1.0000000  0.0000000 )


      isym = 48     inv. 120 deg rotation - cart. axis [-1,-1,1] 

 cryst.   s(48) = (     1         -1          1      )
                  (     1          0          0      )
                  (     0          0         -1      )

 cart.    s(48) = (  0.0000000  0.0000000  1.0000000 )
                  ( -1.0000000  0.0000000  0.0000000 )
                  (  0.0000000  1.0000000  0.0000000 )


     point group O_h (m-3m) 
     there are 10 classes
     the character table:

       E     8C3   3C2   6C4   6C2'  i     8S6   3s_h  6S4   6s_d 
A_1g   1.00  1.00  1.00  1.00  1.00  1.00  1.00  1.00  1.00  1.00
A_2g   1.00  1.00  1.00 -1.00 -1.00  1.00  1.00  1.00 -1.00 -1.00
E_g    2.00 -1.00  2.00  0.00  0.00  2.00 -1.00  2.00  0.00  0.00
T_1g   3.00  0.00 -1.00  1.00 -1.00  3.00  0.00 -1.00  1.00 -1.00
T_2g   3.00  0.00 -1.00 -1.00  1.00  3.00  0.00 -1.00 -1.00  1.00
A_1u   1.00  1.00  1.00  1.00  1.00 -1.00 -1.00 -1.00 -1.00 -1.00
A_2u   1.00  1.00  1.00 -1.00 -1.00 -1.00 -1.00 -1.00  1.00  1.00
E_u    2.00 -1.00  2.00  0.00  0.00 -2.00  1.00 -2.00  0.00  0.00
T_1u   3.00  0.00 -1.00  1.00 -1.00 -3.00  0.00  1.00 -1.00  1.00
T_2u   3.00  0.00 -1.00 -1.00  1.00 -3.00  0.00  1.00  1.00 -1.00

     the symmetry operations in each class and the name of the first element:

     E        1
          identity                                               
     8C3     17   19   20   18   24   21   22   23
          120 deg rotation - cart. axis [-1,-1,-1]               
     3C2      2    4    3
          180 deg rotation - cart. axis [0,0,1]                  
     6C4      7    8   15   16   12   11
           90 deg rotation - cart. axis [0,0,-1]                 
     6C2'     5    6   14   13   10    9
          180 deg rotation - cart. axis [1,1,0]                  
     i       25
          inversion                                              
     8S6     41   43   44   42   48   45   46   47
          inv. 120 deg rotation - cart. axis [-1,-1,-1]          
     3s_h    26   28   27
          inv. 180 deg rotation - cart. axis [0,0,1]             
     6S4     31   32   39   40   36   35
          inv.  90 deg rotation - cart. axis [0,0,-1]            
     6s_d    29   30   38   37   34   33
          inv. 180 deg rotation - cart. axis [1,1,0]             

   Cartesian axes

     site n.     atom                  positions (alat units)
         1           Fe  tau(   1) = (   0.0000000   0.0000000   0.0000000  )

   Crystallographic axes

     site n.     atom                  positions (cryst. coord.)
         1           Fe  tau(   1) = (  0.0000000  0.0000000  0.0000000  )

     number of k points=   308  Marzari-Vanderbilt smearing, width (Ry)=  0.0100
                       cart. coord. in units 2pi/alat
        k(    1) = (   0.0000000   0.0000000   0.0000000), wk =   0.0032468
        k(    2) = (   0.0196078  -0.0196078   0.0196078), wk =   0.0032468
        k(    3) = (   0.0392157  -0.0392157   0.0392157), wk =   0.0032468
        k(    4) = (   0.0588235  -0.0588235   0.0588235), wk =   0.0032468
        k(    5) = (   0.0784314  -0.0784314   0.0784314), wk =   0.0032468
        k(    6) = (   0.0980392  -0.0980392   0.0980392), wk =   0.0032468
        k(    7) = (   0.1176471  -0.1176471   0.1176471), wk =   0.0032468
        k(    8) = (   0.1372549  -0.1372549   0.1372549), wk =   0.0032468
        k(    9) = (   0.1568627  -0.1568627   0.1568627), wk =   0.0032468
        k(   10) = (   0.1764706  -0.1764706   0.1764706), wk =   0.0032468
        k(   11) = (   0.1960784  -0.1960784   0.1960784), wk =   0.0032468
        k(   12) = (   0.2156863  -0.2156863   0.2156863), wk =   0.0032468
        k(   13) = (   0.2352941  -0.2352941   0.2352941), wk =   0.0032468
        k(   14) = (   0.2549020  -0.2549020   0.2549020), wk =   0.0032468
        k(   15) = (   0.2745098  -0.2745098   0.2745098), wk =   0.0032468
        k(   16) = (   0.2941176  -0.2941176   0.2941176), wk =   0.0032468
        k(   17) = (   0.3137255  -0.3137255   0.3137255), wk =   0.0032468
        k(   18) = (   0.3333333  -0.3333333   0.3333333), wk =   0.0032468
        k(   19) = (   0.3529412  -0.3529412   0.3529412), wk =   0.0032468
        k(   20) = (   0.3725490  -0.3725490   0.3725490), wk =   0.0032468
        k(   21) = (   0.3921569  -0.3921569   0.3921569), wk =   0.0032468
        k(   22) = (   0.4117647  -0.4117647   0.4117647), wk =   0.0032468
        k(   23) = (   0.4313725  -0.4313725   0.4313725), wk =   0.0032468
        k(   24) = (   0.4509804  -0.4509804   0.4509804), wk =   0.0032468
        k(   25) = (   0.4705882  -0.4705882   0.4705882), wk =   0.0032468
        k(   26) = (   0.4901961  -0.4901961   0.4901961), wk =   0.0032468
        k(   27) = (   0.5098039  -0.5098039   0.5098039), wk =   0.0032468
        k(   28) = (   0.5294118  -0.5294118   0.5294118), wk =   0.0032468
        k(   29) = (   0.5490196  -0.5490196   0.5490196), wk =   0.0032468
        k(   30) = (   0.5686275  -0.5686275   0.5686275), wk =   0.0032468
        k(   31) = (   0.5882353  -0.5882353   0.5882353), wk =   0.0032468
        k(   32) = (   0.6078431  -0.6078431   0.6078431), wk =   0.0032468
        k(   33) = (   0.6274510  -0.6274510   0.6274510), wk =   0.0032468
        k(   34) = (   0.6470588  -0.6470588   0.6470588), wk =   0.0032468
        k(   35) = (   0.6666667  -0.6666667   0.6666667), wk =   0.0032468
        k(   36) = (   0.6862745  -0.6862745   0.6862745), wk =   0.0032468
        k(   37) = (   0.7058824  -0.7058824   0.7058824), wk =   0.0032468
        k(   38) = (   0.7254902  -0.7254902   0.7254902), wk =   0.0032468
        k(   39) = (   0.7450980  -0.7450980   0.7450980), wk =   0.0032468
        k(   40) = (   0.7647059  -0.7647059   0.7647059), wk =   0.0032468
        k(   41) = (   0.7843137  -0.7843137   0.7843137), wk =   0.0032468
        k(   42) = (   0.8039216  -0.8039216   0.8039216), wk =   0.0032468
        k(   43) = (   0.8235294  -0.8235294   0.8235294), wk =   0.0032468
        k(   44) = (   0.8431373  -0.8431373   0.8431373), wk =   0.0032468
        k(   45) = (   0.8627451  -0.8627451   0.8627451), wk =   0.0032468
        k(   46) = (   0.8823529  -0.8823529   0.8823529), wk =   0.0032468
        k(   47) = (   0.9019608  -0.9019608   0.9019608), wk =   0.0032468
        k(   48) = (   0.9215686  -0.9215686   0.9215686), wk =   0.0032468
        k(   49) = (   0.9411765  -0.9411765   0.9411765), wk =   0.0032468
        k(   50) = (   0.9607843  -0.9607843   0.9607843), wk =   0.0032468
        k(   51) = (   0.9803922  -0.9803922   0.9803922), wk =   0.0032468
        k(   52) = (   1.0000000  -1.0000000   1.0000000), wk =   0.0032468
        k(   53) = (   0.9803922  -0.9901961   0.9901961), wk =   0.0032468
        k(   54) = (   0.9607843  -0.9803922   0.9803922), wk =   0.0032468
        k(   55) = (   0.9411765  -0.9705882   0.9705882), wk =   0.0032468
        k(   56) = (   0.9215686  -0.9607843   0.9607843), wk =   0.0032468
        k(   57) = (   0.9019608  -0.9509804   0.9509804), wk =   0.0032468
        k(   58) = (   0.8823529  -0.9411765   0.9411765), wk =   0.0032468
        k(   59) = (   0.8627451  -0.9313725   0.9313725), wk =   0.0032468
        k(   60) = (   0.8431373  -0.9215686   0.9215686), wk =   0.0032468
        k(   61) = (   0.8235294  -0.9117647   0.9117647), wk =   0.0032468
        k(   62) = (   0.8039216  -0.9019608   0.9019608), wk =   0.0032468
        k(   63) = (   0.7843137  -0.8921569   0.8921569), wk =   0.0032468
        k(   64) = (   0.7647059  -0.8823529   0.8823529), wk =   0.0032468
        k(   65) = (   0.7450980  -0.8725490   0.8725490), wk =   0.0032468
        k(   66) = (   0.7254902  -0.8627451   0.8627451), wk =   0.0032468
        k(   67) = (   0.7058824  -0.8529412   0.8529412), wk =   0.0032468
        k(   68) = (   0.6862745  -0.8431373   0.8431373), wk =   0.0032468
        k(   69) = (   0.6666667  -0.8333333   0.8333333), wk =   0.0032468
        k(   70) = (   0.6470588  -0.8235294   0.8235294), wk =   0.0032468
        k(   71) = (   0.6274510  -0.8137255   0.8137255), wk =   0.0032468
        k(   72) = (   0.6078431  -0.8039216   0.8039216), wk =   0.0032468
        k(   73) = (   0.5882353  -0.7941176   0.7941176), wk =   0.0032468
        k(   74) = (   0.5686275  -0.7843137   0.7843137), wk =   0.0032468
        k(   75) = (   0.5490196  -0.7745098   0.7745098), wk =   0.0032468
        k(   76) = (   0.5294118  -0.7647059   0.7647059), wk =   0.0032468
        k(   77) = (   0.5098039  -0.7549020   0.7549020), wk =   0.0032468
        k(   78) = (   0.4901961  -0.7450980   0.7450980), wk =   0.0032468
        k(   79) = (   0.4705882  -0.7352941   0.7352941), wk =   0.0032468
        k(   80) = (   0.4509804  -0.7254902   0.7254902), wk =   0.0032468
        k(   81) = (   0.4313725  -0.7156863   0.7156863), wk =   0.0032468
        k(   82) = (   0.4117647  -0.7058824   0.7058824), wk =   0.0032468
        k(   83) = (   0.3921569  -0.6960784   0.6960784), wk =   0.0032468
        k(   84) = (   0.3725490  -0.6862745   0.6862745), wk =   0.0032468
        k(   85) = (   0.3529412  -0.6764706   0.6764706), wk =   0.0032468
        k(   86) = (   0.3333333  -0.6666667   0.6666667), wk =   0.0032468
        k(   87) = (   0.3137255  -0.6568627   0.6568627), wk =   0.0032468
        k(   88) = (   0.2941176  -0.6470588   0.6470588), wk =   0.0032468
        k(   89) = (   0.2745098  -0.6372549   0.6372549), wk =   0.0032468
        k(   90) = (   0.2549020  -0.6274510   0.6274510), wk =   0.0032468
        k(   91) = (   0.2352941  -0.6176471   0.6176471), wk =   0.0032468
        k(   92) = (   0.2156863  -0.6078431   0.6078431), wk =   0.0032468
        k(   93) = (   0.1960784  -0.5980392   0.5980392), wk =   0.0032468
        k(   94) = (   0.1764706  -0.5882353   0.5882353), wk =   0.0032468
        k(   95) = (   0.1568627  -0.5784314   0.5784314), wk =   0.0032468
        k(   96) = (   0.1372549  -0.5686275   0.5686275), wk =   0.0032468
        k(   97) = (   0.1176471  -0.5588235   0.5588235), wk =   0.0032468
        k(   98) = (   0.0980392  -0.5490196   0.5490196), wk =   0.0032468
        k(   99) = (   0.0784314  -0.5392157   0.5392157), wk =   0.0032468
        k(  100) = (   0.0588235  -0.5294118   0.5294118), wk =   0.0032468
        k(  101) = (   0.0392157  -0.5196078   0.5196078), wk =   0.0032468
        k(  102) = (   0.0196078  -0.5098039   0.5098039), wk =   0.0032468
        k(  103) = (   0.0000000  -0.5000000   0.5000000), wk =   0.0032468
        k(  104) = (   0.0000000  -0.4901961   0.4901961), wk =   0.0032468
        k(  105) = (   0.0000000  -0.4803922   0.4803922), wk =   0.0032468
        k(  106) = (   0.0000000  -0.4705882   0.4705882), wk =   0.0032468
        k(  107) = (   0.0000000  -0.4607843   0.4607843), wk =   0.0032468
        k(  108) = (   0.0000000  -0.4509804   0.4509804), wk =   0.0032468
        k(  109) = (   0.0000000  -0.4411765   0.4411765), wk =   0.0032468
        k(  110) = (   0.0000000  -0.4313725   0.4313725), wk =   0.0032468
        k(  111) = (   0.0000000  -0.4215686   0.4215686), wk =   0.0032468
        k(  112) = (   0.0000000  -0.4117647   0.4117647), wk =   0.0032468
        k(  113) = (   0.0000000  -0.4019608   0.4019608), wk =   0.0032468
        k(  114) = (   0.0000000  -0.3921569   0.3921569), wk =   0.0032468
        k(  115) = (   0.0000000  -0.3823529   0.3823529), wk =   0.0032468
        k(  116) = (   0.0000000  -0.3725490   0.3725490), wk =   0.0032468
        k(  117) = (   0.0000000  -0.3627451   0.3627451), wk =   0.0032468
        k(  118) = (   0.0000000  -0.3529412   0.3529412), wk =   0.0032468
        k(  119) = (   0.0000000  -0.3431373   0.3431373), wk =   0.0032468
        k(  120) = (   0.0000000  -0.3333333   0.3333333), wk =   0.0032468
        k(  121) = (   0.0000000  -0.3235294   0.3235294), wk =   0.0032468
        k(  122) = (   0.0000000  -0.3137255   0.3137255), wk =   0.0032468
        k(  123) = (   0.0000000  -0.3039216   0.3039216), wk =   0.0032468
        k(  124) = (   0.0000000  -0.2941176   0.2941176), wk =   0.0032468
        k(  125) = (   0.0000000  -0.2843137   0.2843137), wk =   0.0032468
        k(  126) = (   0.0000000  -0.2745098   0.2745098), wk =   0.0032468
        k(  127) = (   0.0000000  -0.2647059   0.2647059), wk =   0.0032468
        k(  128) = (   0.0000000  -0.2549020   0.2549020), wk =   0.0032468
        k(  129) = (   0.0000000  -0.2450980   0.2450980), wk =   0.0032468
        k(  130) = (   0.0000000  -0.2352941   0.2352941), wk =   0.0032468
        k(  131) = (   0.0000000  -0.2254902   0.2254902), wk =   0.0032468
        k(  132) = (   0.0000000  -0.2156863   0.2156863), wk =   0.0032468
        k(  133) = (   0.0000000  -0.2058824   0.2058824), wk =   0.0032468
        k(  134) = (   0.0000000  -0.1960784   0.1960784), wk =   0.0032468
        k(  135) = (   0.0000000  -0.1862745   0.1862745), wk =   0.0032468
        k(  136) = (   0.0000000  -0.1764706   0.1764706), wk =   0.0032468
        k(  137) = (   0.0000000  -0.1666667   0.1666667), wk =   0.0032468
        k(  138) = (   0.0000000  -0.1568627   0.1568627), wk =   0.0032468
        k(  139) = (   0.0000000  -0.1470588   0.1470588), wk =   0.0032468
        k(  140) = (   0.0000000  -0.1372549   0.1372549), wk =   0.0032468
        k(  141) = (   0.0000000  -0.1274510   0.1274510), wk =   0.0032468
        k(  142) = (   0.0000000  -0.1176471   0.1176471), wk =   0.0032468
        k(  143) = (   0.0000000  -0.1078431   0.1078431), wk =   0.0032468
        k(  144) = (   0.0000000  -0.0980392   0.0980392), wk =   0.0032468
        k(  145) = (   0.0000000  -0.0882353   0.0882353), wk =   0.0032468
        k(  146) = (   0.0000000  -0.0784314   0.0784314), wk =   0.0032468
        k(  147) = (   0.0000000  -0.0686275   0.0686275), wk =   0.0032468
        k(  148) = (   0.0000000  -0.0588235   0.0588235), wk =   0.0032468
        k(  149) = (   0.0000000  -0.0490196   0.0490196), wk =   0.0032468
        k(  150) = (   0.0000000  -0.0392157   0.0392157), wk =   0.0032468
        k(  151) = (   0.0000000  -0.0294118   0.0294118), wk =   0.0032468
        k(  152) = (   0.0000000  -0.0196078   0.0196078), wk =   0.0032468
        k(  153) = (   0.0000000  -0.0098039   0.0098039), wk =   0.0032468
        k(  154) = (   0.0000000   0.0000000   0.0000000), wk =   0.0032468
        k(  155) = (   0.0000000   0.0000000   0.0098039), wk =   0.0032468
        k(  156) = (   0.0000000   0.0000000   0.0196078), wk =   0.0032468
        k(  157) = (   0.0000000   0.0000000   0.0294118), wk =   0.0032468
        k(  158) = (   0.0000000   0.0000000   0.0392157), wk =   0.0032468
        k(  159) = (   0.0000000   0.0000000   0.0490196), wk =   0.0032468
        k(  160) = (   0.0000000   0.0000000   0.0588235), wk =   0.0032468
        k(  161) = (   0.0000000   0.0000000   0.0686275), wk =   0.0032468
        k(  162) = (   0.0000000   0.0000000   0.0784314), wk =   0.0032468
        k(  163) = (   0.0000000   0.0000000   0.0882353), wk =   0.0032468
        k(  164) = (   0.0000000   0.0000000   0.0980392), wk =   0.0032468
        k(  165) = (   0.0000000   0.0000000   0.1078431), wk =   0.0032468
        k(  166) = (   0.0000000   0.0000000   0.1176471), wk =   0.0032468
        k(  167) = (   0.0000000   0.0000000   0.1274510), wk =   0.0032468
        k(  168) = (   0.0000000   0.0000000   0.1372549), wk =   0.0032468
        k(  169) = (   0.0000000   0.0000000   0.1470588), wk =   0.0032468
        k(  170) = (   0.0000000   0.0000000   0.1568627), wk =   0.0032468
        k(  171) = (   0.0000000   0.0000000   0.1666667), wk =   0.0032468
        k(  172) = (   0.0000000   0.0000000   0.1764706), wk =   0.0032468
        k(  173) = (   0.0000000   0.0000000   0.1862745), wk =   0.0032468
        k(  174) = (   0.0000000   0.0000000   0.1960784), wk =   0.0032468
        k(  175) = (   0.0000000   0.0000000   0.2058824), wk =   0.0032468
        k(  176) = (   0.0000000   0.0000000   0.2156863), wk =   0.0032468
        k(  177) = (   0.0000000   0.0000000   0.2254902), wk =   0.0032468
        k(  178) = (   0.0000000   0.0000000   0.2352941), wk =   0.0032468
        k(  179) = (   0.0000000   0.0000000   0.2450980), wk =   0.0032468
        k(  180) = (   0.0000000   0.0000000   0.2549020), wk =   0.0032468
        k(  181) = (   0.0000000   0.0000000   0.2647059), wk =   0.0032468
        k(  182) = (   0.0000000   0.0000000   0.2745098), wk =   0.0032468
        k(  183) = (   0.0000000   0.0000000   0.2843137), wk =   0.0032468
        k(  184) = (   0.0000000   0.0000000   0.2941176), wk =   0.0032468
        k(  185) = (   0.0000000   0.0000000   0.3039216), wk =   0.0032468
        k(  186) = (   0.0000000   0.0000000   0.3137255), wk =   0.0032468
        k(  187) = (   0.0000000   0.0000000   0.3235294), wk =   0.0032468
        k(  188) = (   0.0000000   0.0000000   0.3333333), wk =   0.0032468
        k(  189) = (   0.0000000   0.0000000   0.3431373), wk =   0.0032468
        k(  190) = (   0.0000000   0.0000000   0.3529412), wk =   0.0032468
        k(  191) = (   0.0000000   0.0000000   0.3627451), wk =   0.0032468
        k(  192) = (   0.0000000   0.0000000   0.3725490), wk =   0.0032468
        k(  193) = (   0.0000000   0.0000000   0.3823529), wk =   0.0032468
        k(  194) = (   0.0000000   0.0000000   0.3921569), wk =   0.0032468
        k(  195) = (   0.0000000   0.0000000   0.4019608), wk =   0.0032468
        k(  196) = (   0.0000000   0.0000000   0.4117647), wk =   0.0032468
        k(  197) = (   0.0000000   0.0000000   0.4215686), wk =   0.0032468
        k(  198) = (   0.0000000   0.0000000   0.4313725), wk =   0.0032468
        k(  199) = (   0.0000000   0.0000000   0.4411765), wk =   0.0032468
        k(  200) = (   0.0000000   0.0000000   0.4509804), wk =   0.0032468
        k(  201) = (   0.0000000   0.0000000   0.4607843), wk =   0.0032468
        k(  202) = (   0.0000000   0.0000000   0.4705882), wk =   0.0032468
        k(  203) = (   0.0000000   0.0000000   0.4803922), wk =   0.0032468
        k(  204) = (   0.0000000   0.0000000   0.4901961), wk =   0.0032468
        k(  205) = (   0.0000000   0.0000000   0.5000000), wk =   0.0032468
        k(  206) = (   0.0196078  -0.0196078   0.5098039), wk =   0.0032468
        k(  207) = (   0.0392157  -0.0392157   0.5196078), wk =   0.0032468
        k(  208) = (   0.0588235  -0.0588235   0.5294118), wk =   0.0032468
        k(  209) = (   0.0784314  -0.0784314   0.5392157), wk =   0.0032468
        k(  210) = (   0.0980392  -0.0980392   0.5490196), wk =   0.0032468
        k(  211) = (   0.1176471  -0.1176471   0.5588235), wk =   0.0032468
        k(  212) = (   0.1372549  -0.1372549   0.5686275), wk =   0.0032468
        k(  213) = (   0.1568627  -0.1568627   0.5784314), wk =   0.0032468
        k(  214) = (   0.1764706  -0.1764706   0.5882353), wk =   0.0032468
        k(  215) = (   0.1960784  -0.1960784   0.5980392), wk =   0.0032468
        k(  216) = (   0.2156863  -0.2156863   0.6078431), wk =   0.0032468
        k(  217) = (   0.2352941  -0.2352941   0.6176471), wk =   0.0032468
        k(  218) = (   0.2549020  -0.2549020   0.6274510), wk =   0.0032468
        k(  219) = (   0.2745098  -0.2745098   0.6372549), wk =   0.0032468
        k(  220) = (   0.2941176  -0.2941176   0.6470588), wk =   0.0032468
        k(  221) = (   0.3137255  -0.3137255   0.6568627), wk =   0.0032468
        k(  222) = (   0.3333333  -0.3333333   0.6666667), wk =   0.0032468
        k(  223) = (   0.3529412  -0.3529412   0.6764706), wk =   0.0032468
        k(  224) = (   0.3725490  -0.3725490   0.6862745), wk =   0.0032468
        k(  225) = (   0.3921569  -0.3921569   0.6960784), wk =   0.0032468
        k(  226) = (   0.4117647  -0.4117647   0.7058824), wk =   0.0032468
        k(  227) = (   0.4313725  -0.4313725   0.7156863), wk =   0.0032468
        k(  228) = (   0.4509804  -0.4509804   0.7254902), wk =   0.0032468
        k(  229) = (   0.4705882  -0.4705882   0.7352941), wk =   0.0032468
        k(  230) = (   0.4901961  -0.4901961   0.7450980), wk =   0.0032468
        k(  231) = (   0.5098039  -0.5098039   0.7549020), wk =   0.0032468
        k(  232) = (   0.5294118  -0.5294118   0.7647059), wk =   0.0032468
        k(  233) = (   0.5490196  -0.5490196   0.7745098), wk =   0.0032468
        k(  234) = (   0.5686275  -0.5686275   0.7843137), wk =   0.0032468
        k(  235) = (   0.5882353  -0.5882353   0.7941176), wk =   0.0032468
        k(  236) = (   0.6078431  -0.6078431   0.8039216), wk =   0.0032468
        k(  237) = (   0.6274510  -0.6274510   0.8137255), wk =   0.0032468
        k(  238) = (   0.6470588  -0.6470588   0.8235294), wk =   0.0032468
        k(  239) = (   0.6666667  -0.6666667   0.8333333), wk =   0.0032468
        k(  240) = (   0.6862745  -0.6862745   0.8431373), wk =   0.0032468
        k(  241) = (   0.7058824  -0.7058824   0.8529412), wk =   0.0032468
        k(  242) = (   0.7254902  -0.7254902   0.8627451), wk =   0.0032468
        k(  243) = (   0.7450980  -0.7450980   0.8725490), wk =   0.0032468
        k(  244) = (   0.7647059  -0.7647059   0.8823529), wk =   0.0032468
        k(  245) = (   0.7843137  -0.7843137   0.8921569), wk =   0.0032468
        k(  246) = (   0.8039216  -0.8039216   0.9019608), wk =   0.0032468
        k(  247) = (   0.8235294  -0.8235294   0.9117647), wk =   0.0032468
        k(  248) = (   0.8431373  -0.8431373   0.9215686), wk =   0.0032468
        k(  249) = (   0.8627451  -0.8627451   0.9313725), wk =   0.0032468
        k(  250) = (   0.8823529  -0.8823529   0.9411765), wk =   0.0032468
        k(  251) = (   0.9019608  -0.9019608   0.9509804), wk =   0.0032468
        k(  252) = (   0.9215686  -0.9215686   0.9607843), wk =   0.0032468
        k(  253) = (   0.9411765  -0.9411765   0.9705882), wk =   0.0032468
        k(  254) = (   0.9607843  -0.9607843   0.9803922), wk =   0.0032468
        k(  255) = (   0.9803922  -0.9803922   0.9901961), wk =   0.0032468
        k(  256) = (   1.0000000  -1.0000000   1.0000000), wk =   0.0032468
        k(  257) = (   0.0000000   0.0000000   0.5000000), wk =   0.0032468
        k(  258) = (   0.0000000  -0.0098039   0.5000000), wk =   0.0032468
        k(  259) = (   0.0000000  -0.0196078   0.5000000), wk =   0.0032468
        k(  260) = (   0.0000000  -0.0294118   0.5000000), wk =   0.0032468
        k(  261) = (   0.0000000  -0.0392157   0.5000000), wk =   0.0032468
        k(  262) = (   0.0000000  -0.0490196   0.5000000), wk =   0.0032468
        k(  263) = (   0.0000000  -0.0588235   0.5000000), wk =   0.0032468
        k(  264) = (   0.0000000  -0.0686275   0.5000000), wk =   0.0032468
        k(  265) = (   0.0000000  -0.0784314   0.5000000), wk =   0.0032468
        k(  266) = (   0.0000000  -0.0882353   0.5000000), wk =   0.0032468
        k(  267) = (   0.0000000  -0.0980392   0.5000000), wk =   0.0032468
        k(  268) = (   0.0000000  -0.1078431   0.5000000), wk =   0.0032468
        k(  269) = (   0.0000000  -0.1176471   0.5000000), wk =   0.0032468
        k(  270) = (   0.0000000  -0.1274510   0.5000000), wk =   0.0032468
        k(  271) = (   0.0000000  -0.1372549   0.5000000), wk =   0.0032468
        k(  272) = (   0.0000000  -0.1470588   0.5000000), wk =   0.0032468
        k(  273) = (   0.0000000  -0.1568627   0.5000000), wk =   0.0032468
        k(  274) = (   0.0000000  -0.1666667   0.5000000), wk =   0.0032468
        k(  275) = (   0.0000000  -0.1764706   0.5000000), wk =   0.0032468
        k(  276) = (   0.0000000  -0.1862745   0.5000000), wk =   0.0032468
        k(  277) = (   0.0000000  -0.1960784   0.5000000), wk =   0.0032468
        k(  278) = (   0.0000000  -0.2058824   0.5000000), wk =   0.0032468
        k(  279) = (   0.0000000  -0.2156863   0.5000000), wk =   0.0032468
        k(  280) = (   0.0000000  -0.2254902   0.5000000), wk =   0.0032468
        k(  281) = (   0.0000000  -0.2352941   0.5000000), wk =   0.0032468
        k(  282) = (   0.0000000  -0.2450980   0.5000000), wk =   0.0032468
        k(  283) = (   0.0000000  -0.2549020   0.5000000), wk =   0.0032468
        k(  284) = (   0.0000000  -0.2647059   0.5000000), wk =   0.0032468
        k(  285) = (   0.0000000  -0.2745098   0.5000000), wk =   0.0032468
        k(  286) = (   0.0000000  -0.2843137   0.5000000), wk =   0.0032468
        k(  287) = (   0.0000000  -0.2941176   0.5000000), wk =   0.0032468
        k(  288) = (   0.0000000  -0.3039216   0.5000000), wk =   0.0032468
        k(  289) = (   0.0000000  -0.3137255   0.5000000), wk =   0.0032468
        k(  290) = (   0.0000000  -0.3235294   0.5000000), wk =   0.0032468
        k(  291) = (   0.0000000  -0.3333333   0.5000000), wk =   0.0032468
        k(  292) = (   0.0000000  -0.3431373   0.5000000), wk =   0.0032468
        k(  293) = (   0.0000000  -0.3529412   0.5000000), wk =   0.0032468
        k(  294) = (   0.0000000  -0.3627451   0.5000000), wk =   0.0032468
        k(  295) = (   0.0000000  -0.3725490   0.5000000), wk =   0.0032468
        k(  296) = (   0.0000000  -0.3823529   0.5000000), wk =   0.0032468
        k(  297) = (   0.0000000  -0.3921569   0.5000000), wk =   0.0032468
        k(  298) = (   0.0000000  -0.4019608   0.5000000), wk =   0.0032468
        k(  299) = (   0.0000000  -0.4117647   0.5000000), wk =   0.0032468
        k(  300) = (   0.0000000  -0.4215686   0.5000000), wk =   0.0032468
        k(  301) = (   0.0000000  -0.4313725   0.5000000), wk =   0.0032468
        k(  302) = (   0.0000000  -0.4411765   0.5000000), wk =   0.0032468
        k(  303) = (   0.0000000  -0.4509804   0.5000000), wk =   0.0032468
        k(  304) = (   0.0000000  -0.4607843   0.5000000), wk =   0.0032468
        k(  305) = (   0.0000000  -0.4705882   0.5000000), wk =   0.0032468
        k(  306) = (   0.0000000  -0.4803922   0.5000000), wk =   0.0032468
        k(  307) = (   0.0000000  -0.4901961   0.5000000), wk =   0.0032468
        k(  308) = (   0.0000000  -0.5000000   0.5000000), wk =   0.0032468

                       cryst. coord.
        k(    1) = (   0.0000000   0.0000000   0.0000000), wk =   0.0032468
        k(    2) = (   0.0098039  -0.0098039   0.0098039), wk =   0.0032468
        k(    3) = (   0.0196078  -0.0196078   0.0196078), wk =   0.0032468
        k(    4) = (   0.0294118  -0.0294118   0.0294118), wk =   0.0032468
        k(    5) = (   0.0392157  -0.0392157   0.0392157), wk =   0.0032468
        k(    6) = (   0.0490196  -0.0490196   0.0490196), wk =   0.0032468
        k(    7) = (   0.0588235  -0.0588235   0.0588235), wk =   0.0032468
        k(    8) = (   0.0686275  -0.0686275   0.0686275), wk =   0.0032468
        k(    9) = (   0.0784314  -0.0784314   0.0784314), wk =   0.0032468
        k(   10) = (   0.0882353  -0.0882353   0.0882353), wk =   0.0032468
        k(   11) = (   0.0980392  -0.0980392   0.0980392), wk =   0.0032468
        k(   12) = (   0.1078431  -0.1078431   0.1078431), wk =   0.0032468
        k(   13) = (   0.1176471  -0.1176471   0.1176471), wk =   0.0032468
        k(   14) = (   0.1274510  -0.1274510   0.1274510), wk =   0.0032468
        k(   15) = (   0.1372549  -0.1372549   0.1372549), wk =   0.0032468
        k(   16) = (   0.1470588  -0.1470588   0.1470588), wk =   0.0032468
        k(   17) = (   0.1568627  -0.1568627   0.1568627), wk =   0.0032468
        k(   18) = (   0.1666667  -0.1666667   0.1666667), wk =   0.0032468
        k(   19) = (   0.1764706  -0.1764706   0.1764706), wk =   0.0032468
        k(   20) = (   0.1862745  -0.1862745   0.1862745), wk =   0.0032468
        k(   21) = (   0.1960784  -0.1960784   0.1960784), wk =   0.0032468
        k(   22) = (   0.2058824  -0.2058824   0.2058824), wk =   0.0032468
        k(   23) = (   0.2156863  -0.2156863   0.2156863), wk =   0.0032468
        k(   24) = (   0.2254902  -0.2254902   0.2254902), wk =   0.0032468
        k(   25) = (   0.2352941  -0.2352941   0.2352941), wk =   0.0032468
        k(   26) = (   0.2450980  -0.2450980   0.2450980), wk =   0.0032468
        k(   27) = (   0.2549020  -0.2549020   0.2549020), wk =   0.0032468
        k(   28) = (   0.2647059  -0.2647059   0.2647059), wk =   0.0032468
        k(   29) = (   0.2745098  -0.2745098   0.2745098), wk =   0.0032468
        k(   30) = (   0.2843137  -0.2843137   0.2843137), wk =   0.0032468
        k(   31) = (   0.2941176  -0.2941176   0.2941176), wk =   0.0032468
        k(   32) = (   0.3039216  -0.3039216   0.3039216), wk =   0.0032468
        k(   33) = (   0.3137255  -0.3137255   0.3137255), wk =   0.0032468
        k(   34) = (   0.3235294  -0.3235294   0.3235294), wk =   0.0032468
        k(   35) = (   0.3333333  -0.3333333   0.3333333), wk =   0.0032468
        k(   36) = (   0.3431373  -0.3431373   0.3431373), wk =   0.0032468
        k(   37) = (   0.3529412  -0.3529412   0.3529412), wk =   0.0032468
        k(   38) = (   0.3627451  -0.3627451   0.3627451), wk =   0.0032468
        k(   39) = (   0.3725490  -0.3725490   0.3725490), wk =   0.0032468
        k(   40) = (   0.3823529  -0.3823529   0.3823529), wk =   0.0032468
        k(   41) = (   0.3921569  -0.3921569   0.3921569), wk =   0.0032468
        k(   42) = (   0.4019608  -0.4019608   0.4019608), wk =   0.0032468
        k(   43) = (   0.4117647  -0.4117647   0.4117647), wk =   0.0032468
        k(   44) = (   0.4215686  -0.4215686   0.4215686), wk =   0.0032468
        k(   45) = (   0.4313725  -0.4313725   0.4313725), wk =   0.0032468
        k(   46) = (   0.4411765  -0.4411765   0.4411765), wk =   0.0032468
        k(   47) = (   0.4509804  -0.4509804   0.4509804), wk =   0.0032468
        k(   48) = (   0.4607843  -0.4607843   0.4607843), wk =   0.0032468
        k(   49) = (   0.4705882  -0.4705882   0.4705882), wk =   0.0032468
        k(   50) = (   0.4803922  -0.4803922   0.4803922), wk =   0.0032468
        k(   51) = (   0.4901961  -0.4901961   0.4901961), wk =   0.0032468
        k(   52) = (   0.5000000  -0.5000000   0.5000000), wk =   0.0032468
        k(   53) = (   0.4901961  -0.4901961   0.5000000), wk =   0.0032468
        k(   54) = (   0.4803922  -0.4803922   0.5000000), wk =   0.0032468
        k(   55) = (   0.4705882  -0.4705882   0.5000000), wk =   0.0032468
        k(   56) = (   0.4607843  -0.4607843   0.5000000), wk =   0.0032468
        k(   57) = (   0.4509804  -0.4509804   0.5000000), wk =   0.0032468
        k(   58) = (   0.4411765  -0.4411765   0.5000000), wk =   0.0032468
        k(   59) = (   0.4313725  -0.4313725   0.5000000), wk =   0.0032468
        k(   60) = (   0.4215686  -0.4215686   0.5000000), wk =   0.0032468
        k(   61) = (   0.4117647  -0.4117647   0.5000000), wk =   0.0032468
        k(   62) = (   0.4019608  -0.4019608   0.5000000), wk =   0.0032468
        k(   63) = (   0.3921569  -0.3921569   0.5000000), wk =   0.0032468
        k(   64) = (   0.3823529  -0.3823529   0.5000000), wk =   0.0032468
        k(   65) = (   0.3725490  -0.3725490   0.5000000), wk =   0.0032468
        k(   66) = (   0.3627451  -0.3627451   0.5000000), wk =   0.0032468
        k(   67) = (   0.3529412  -0.3529412   0.5000000), wk =   0.0032468
        k(   68) = (   0.3431373  -0.3431373   0.5000000), wk =   0.0032468
        k(   69) = (   0.3333333  -0.3333333   0.5000000), wk =   0.0032468
        k(   70) = (   0.3235294  -0.3235294   0.5000000), wk =   0.0032468
        k(   71) = (   0.3137255  -0.3137255   0.5000000), wk =   0.0032468
        k(   72) = (   0.3039216  -0.3039216   0.5000000), wk =   0.0032468
        k(   73) = (   0.2941176  -0.2941176   0.5000000), wk =   0.0032468
        k(   74) = (   0.2843137  -0.2843137   0.5000000), wk =   0.0032468
        k(   75) = (   0.2745098  -0.2745098   0.5000000), wk =   0.0032468
        k(   76) = (   0.2647059  -0.2647059   0.5000000), wk =   0.0032468
        k(   77) = (   0.2549020  -0.2549020   0.5000000), wk =   0.0032468
        k(   78) = (   0.2450980  -0.2450980   0.5000000), wk =   0.0032468
        k(   79) = (   0.2352941  -0.2352941   0.5000000), wk =   0.0032468
        k(   80) = (   0.2254902  -0.2254902   0.5000000), wk =   0.0032468
        k(   81) = (   0.2156863  -0.2156863   0.5000000), wk =   0.0032468
        k(   82) = (   0.2058824  -0.2058824   0.5000000), wk =   0.0032468
        k(   83) = (   0.1960784  -0.1960784   0.5000000), wk =   0.0032468
        k(   84) = (   0.1862745  -0.1862745   0.5000000), wk =   0.0032468
        k(   85) = (   0.1764706  -0.1764706   0.5000000), wk =   0.0032468
        k(   86) = (   0.1666667  -0.1666667   0.5000000), wk =   0.0032468
        k(   87) = (   0.1568627  -0.1568627   0.5000000), wk =   0.0032468
        k(   88) = (   0.1470588  -0.1470588   0.5000000), wk =   0.0032468
        k(   89) = (   0.1372549  -0.1372549   0.5000000), wk =   0.0032468
        k(   90) = (   0.1274510  -0.1274510   0.5000000), wk =   0.0032468
        k(   91) = (   0.1176471  -0.1176471   0.5000000), wk =   0.0032468
        k(   92) = (   0.1078431  -0.1078431   0.5000000), wk =   0.0032468
        k(   93) = (   0.0980392  -0.0980392   0.5000000), wk =   0.0032468
        k(   94) = (   0.0882353  -0.0882353   0.5000000), wk =   0.0032468
        k(   95) = (   0.0784314  -0.0784314   0.5000000), wk =   0.0032468
        k(   96) = (   0.0686275  -0.0686275   0.5000000), wk =   0.0032468
        k(   97) = (   0.0588235  -0.0588235   0.5000000), wk =   0.0032468
        k(   98) = (   0.0490196  -0.0490196   0.5000000), wk =   0.0032468
        k(   99) = (   0.0392157  -0.0392157   0.5000000), wk =   0.0032468
        k(  100) = (   0.0294118  -0.0294118   0.5000000), wk =   0.0032468
        k(  101) = (   0.0196078  -0.0196078   0.5000000), wk =   0.0032468
        k(  102) = (   0.0098039  -0.0098039   0.5000000), wk =   0.0032468
        k(  103) = (   0.0000000   0.0000000   0.5000000), wk =   0.0032468
        k(  104) = (   0.0000000   0.0000000   0.4901961), wk =   0.0032468
        k(  105) = (   0.0000000   0.0000000   0.4803922), wk =   0.0032468
        k(  106) = (   0.0000000   0.0000000   0.4705882), wk =   0.0032468
        k(  107) = (   0.0000000   0.0000000   0.4607843), wk =   0.0032468
        k(  108) = (   0.0000000   0.0000000   0.4509804), wk =   0.0032468
        k(  109) = (   0.0000000   0.0000000   0.4411765), wk =   0.0032468
        k(  110) = (   0.0000000   0.0000000   0.4313725), wk =   0.0032468
        k(  111) = (   0.0000000   0.0000000   0.4215686), wk =   0.0032468
        k(  112) = (   0.0000000   0.0000000   0.4117647), wk =   0.0032468
        k(  113) = (   0.0000000   0.0000000   0.4019608), wk =   0.0032468
        k(  114) = (   0.0000000   0.0000000   0.3921569), wk =   0.0032468
        k(  115) = (   0.0000000   0.0000000   0.3823529), wk =   0.0032468
        k(  116) = (   0.0000000   0.0000000   0.3725490), wk =   0.0032468
        k(  117) = (   0.0000000   0.0000000   0.3627451), wk =   0.0032468
        k(  118) = (   0.0000000   0.0000000   0.3529412), wk =   0.0032468
        k(  119) = (   0.0000000   0.0000000   0.3431373), wk =   0.0032468
        k(  120) = (   0.0000000   0.0000000   0.3333333), wk =   0.0032468
        k(  121) = (   0.0000000   0.0000000   0.3235294), wk =   0.0032468
        k(  122) = (   0.0000000   0.0000000   0.3137255), wk =   0.0032468
        k(  123) = (   0.0000000   0.0000000   0.3039216), wk =   0.0032468
        k(  124) = (   0.0000000   0.0000000   0.2941176), wk =   0.0032468
        k(  125) = (   0.0000000   0.0000000   0.2843137), wk =   0.0032468
        k(  126) = (   0.0000000   0.0000000   0.2745098), wk =   0.0032468
        k(  127) = (   0.0000000   0.0000000   0.2647059), wk =   0.0032468
        k(  128) = (   0.0000000   0.0000000   0.2549020), wk =   0.0032468
        k(  129) = (   0.0000000   0.0000000   0.2450980), wk =   0.0032468
        k(  130) = (   0.0000000   0.0000000   0.2352941), wk =   0.0032468
        k(  131) = (   0.0000000   0.0000000   0.2254902), wk =   0.0032468
        k(  132) = (   0.0000000   0.0000000   0.2156863), wk =   0.0032468
        k(  133) = (   0.0000000   0.0000000   0.2058824), wk =   0.0032468
        k(  134) = (   0.0000000   0.0000000   0.1960784), wk =   0.0032468
        k(  135) = (   0.0000000   0.0000000   0.1862745), wk =   0.0032468
        k(  136) = (   0.0000000   0.0000000   0.1764706), wk =   0.0032468
        k(  137) = (   0.0000000   0.0000000   0.1666667), wk =   0.0032468
        k(  138) = (   0.0000000   0.0000000   0.1568627), wk =   0.0032468
        k(  139) = (   0.0000000   0.0000000   0.1470588), wk =   0.0032468
        k(  140) = (   0.0000000   0.0000000   0.1372549), wk =   0.0032468
        k(  141) = (   0.0000000   0.0000000   0.1274510), wk =   0.0032468
        k(  142) = (   0.0000000   0.0000000   0.1176471), wk =   0.0032468
        k(  143) = (   0.0000000   0.0000000   0.1078431), wk =   0.0032468
        k(  144) = (   0.0000000   0.0000000   0.0980392), wk =   0.0032468
        k(  145) = (   0.0000000   0.0000000   0.0882353), wk =   0.0032468
        k(  146) = (   0.0000000   0.0000000   0.0784314), wk =   0.0032468
        k(  147) = (   0.0000000   0.0000000   0.0686275), wk =   0.0032468
        k(  148) = (   0.0000000   0.0000000   0.0588235), wk =   0.0032468
        k(  149) = (   0.0000000   0.0000000   0.0490196), wk =   0.0032468
        k(  150) = (   0.0000000   0.0000000   0.0392157), wk =   0.0032468
        k(  151) = (   0.0000000   0.0000000   0.0294118), wk =   0.0032468
        k(  152) = (   0.0000000   0.0000000   0.0196078), wk =   0.0032468
        k(  153) = (   0.0000000   0.0000000   0.0098039), wk =   0.0032468
        k(  154) = (   0.0000000   0.0000000   0.0000000), wk =   0.0032468
        k(  155) = (   0.0049020   0.0049020   0.0049020), wk =   0.0032468
        k(  156) = (   0.0098039   0.0098039   0.0098039), wk =   0.0032468
        k(  157) = (   0.0147059   0.0147059   0.0147059), wk =   0.0032468
        k(  158) = (   0.0196078   0.0196078   0.0196078), wk =   0.0032468
        k(  159) = (   0.0245098   0.0245098   0.0245098), wk =   0.0032468
        k(  160) = (   0.0294118   0.0294118   0.0294118), wk =   0.0032468
        k(  161) = (   0.0343137   0.0343137   0.0343137), wk =   0.0032468
        k(  162) = (   0.0392157   0.0392157   0.0392157), wk =   0.0032468
        k(  163) = (   0.0441176   0.0441176   0.0441176), wk =   0.0032468
        k(  164) = (   0.0490196   0.0490196   0.0490196), wk =   0.0032468
        k(  165) = (   0.0539216   0.0539216   0.0539216), wk =   0.0032468
        k(  166) = (   0.0588235   0.0588235   0.0588235), wk =   0.0032468
        k(  167) = (   0.0637255   0.0637255   0.0637255), wk =   0.0032468
        k(  168) = (   0.0686275   0.0686275   0.0686275), wk =   0.0032468
        k(  169) = (   0.0735294   0.0735294   0.0735294), wk =   0.0032468
        k(  170) = (   0.0784314   0.0784314   0.0784314), wk =   0.0032468
        k(  171) = (   0.0833333   0.0833333   0.0833333), wk =   0.0032468
        k(  172) = (   0.0882353   0.0882353   0.0882353), wk =   0.0032468
        k(  173) = (   0.0931373   0.0931373   0.0931373), wk =   0.0032468
        k(  174) = (   0.0980392   0.0980392   0.0980392), wk =   0.0032468
        k(  175) = (   0.1029412   0.1029412   0.1029412), wk =   0.0032468
        k(  176) = (   0.1078431   0.1078431   0.1078431), wk =   0.0032468
        k(  177) = (   0.1127451   0.1127451   0.1127451), wk =   0.0032468
        k(  178) = (   0.1176471   0.1176471   0.1176471), wk =   0.0032468
        k(  179) = (   0.1225490   0.1225490   0.1225490), wk =   0.0032468
        k(  180) = (   0.1274510   0.1274510   0.1274510), wk =   0.0032468
        k(  181) = (   0.1323529   0.1323529   0.1323529), wk =   0.0032468
        k(  182) = (   0.1372549   0.1372549   0.1372549), wk =   0.0032468
        k(  183) = (   0.1421569   0.1421569   0.1421569), wk =   0.0032468
        k(  184) = (   0.1470588   0.1470588   0.1470588), wk =   0.0032468
        k(  185) = (   0.1519608   0.1519608   0.1519608), wk =   0.0032468
        k(  186) = (   0.1568627   0.1568627   0.1568627), wk =   0.0032468
        k(  187) = (   0.1617647   0.1617647   0.1617647), wk =   0.0032468
        k(  188) = (   0.1666667   0.1666667   0.1666667), wk =   0.0032468
        k(  189) = (   0.1715686   0.1715686   0.1715686), wk =   0.0032468
        k(  190) = (   0.1764706   0.1764706   0.1764706), wk =   0.0032468
        k(  191) = (   0.1813725   0.1813725   0.1813725), wk =   0.0032468
        k(  192) = (   0.1862745   0.1862745   0.1862745), wk =   0.0032468
        k(  193) = (   0.1911765   0.1911765   0.1911765), wk =   0.0032468
        k(  194) = (   0.1960784   0.1960784   0.1960784), wk =   0.0032468
        k(  195) = (   0.2009804   0.2009804   0.2009804), wk =   0.0032468
        k(  196) = (   0.2058824   0.2058824   0.2058824), wk =   0.0032468
        k(  197) = (   0.2107843   0.2107843   0.2107843), wk =   0.0032468
        k(  198) = (   0.2156863   0.2156863   0.2156863), wk =   0.0032468
        k(  199) = (   0.2205882   0.2205882   0.2205882), wk =   0.0032468
        k(  200) = (   0.2254902   0.2254902   0.2254902), wk =   0.0032468
        k(  201) = (   0.2303922   0.2303922   0.2303922), wk =   0.0032468
        k(  202) = (   0.2352941   0.2352941   0.2352941), wk =   0.0032468
        k(  203) = (   0.2401961   0.2401961   0.2401961), wk =   0.0032468
        k(  204) = (   0.2450980   0.2450980   0.2450980), wk =   0.0032468
        k(  205) = (   0.2500000   0.2500000   0.2500000), wk =   0.0032468
        k(  206) = (   0.2549020   0.2352941   0.2549020), wk =   0.0032468
        k(  207) = (   0.2598039   0.2205882   0.2598039), wk =   0.0032468
        k(  208) = (   0.2647059   0.2058824   0.2647059), wk =   0.0032468
        k(  209) = (   0.2696078   0.1911765   0.2696078), wk =   0.0032468
        k(  210) = (   0.2745098   0.1764706   0.2745098), wk =   0.0032468
        k(  211) = (   0.2794118   0.1617647   0.2794118), wk =   0.0032468
        k(  212) = (   0.2843137   0.1470588   0.2843137), wk =   0.0032468
        k(  213) = (   0.2892157   0.1323529   0.2892157), wk =   0.0032468
        k(  214) = (   0.2941176   0.1176471   0.2941176), wk =   0.0032468
        k(  215) = (   0.2990196   0.1029412   0.2990196), wk =   0.0032468
        k(  216) = (   0.3039216   0.0882353   0.3039216), wk =   0.0032468
        k(  217) = (   0.3088235   0.0735294   0.3088235), wk =   0.0032468
        k(  218) = (   0.3137255   0.0588235   0.3137255), wk =   0.0032468
        k(  219) = (   0.3186275   0.0441176   0.3186275), wk =   0.0032468
        k(  220) = (   0.3235294   0.0294118   0.3235294), wk =   0.0032468
        k(  221) = (   0.3284314   0.0147059   0.3284314), wk =   0.0032468
        k(  222) = (   0.3333333   0.0000000   0.3333333), wk =   0.0032468
        k(  223) = (   0.3382353  -0.0147059   0.3382353), wk =   0.0032468
        k(  224) = (   0.3431373  -0.0294118   0.3431373), wk =   0.0032468
        k(  225) = (   0.3480392  -0.0441176   0.3480392), wk =   0.0032468
        k(  226) = (   0.3529412  -0.0588235   0.3529412), wk =   0.0032468
        k(  227) = (   0.3578431  -0.0735294   0.3578431), wk =   0.0032468
        k(  228) = (   0.3627451  -0.0882353   0.3627451), wk =   0.0032468
        k(  229) = (   0.3676471  -0.1029412   0.3676471), wk =   0.0032468
        k(  230) = (   0.3725490  -0.1176471   0.3725490), wk =   0.0032468
        k(  231) = (   0.3774510  -0.1323529   0.3774510), wk =   0.0032468
        k(  232) = (   0.3823529  -0.1470588   0.3823529), wk =   0.0032468
        k(  233) = (   0.3872549  -0.1617647   0.3872549), wk =   0.0032468
        k(  234) = (   0.3921569  -0.1764706   0.3921569), wk =   0.0032468
        k(  235) = (   0.3970588  -0.1911765   0.3970588), wk =   0.0032468
        k(  236) = (   0.4019608  -0.2058824   0.4019608), wk =   0.0032468
        k(  237) = (   0.4068627  -0.2205882   0.4068627), wk =   0.0032468
        k(  238) = (   0.4117647  -0.2352941   0.4117647), wk =   0.0032468
        k(  239) = (   0.4166667  -0.2500000   0.4166667), wk =   0.0032468
        k(  240) = (   0.4215686  -0.2647059   0.4215686), wk =   0.0032468
        k(  241) = (   0.4264706  -0.2794118   0.4264706), wk =   0.0032468
        k(  242) = (   0.4313725  -0.2941176   0.4313725), wk =   0.0032468
        k(  243) = (   0.4362745  -0.3088235   0.4362745), wk =   0.0032468
        k(  244) = (   0.4411765  -0.3235294   0.4411765), wk =   0.0032468
        k(  245) = (   0.4460784  -0.3382353   0.4460784), wk =   0.0032468
        k(  246) = (   0.4509804  -0.3529412   0.4509804), wk =   0.0032468
        k(  247) = (   0.4558824  -0.3676471   0.4558824), wk =   0.0032468
        k(  248) = (   0.4607843  -0.3823529   0.4607843), wk =   0.0032468
        k(  249) = (   0.4656863  -0.3970588   0.4656863), wk =   0.0032468
        k(  250) = (   0.4705882  -0.4117647   0.4705882), wk =   0.0032468
        k(  251) = (   0.4754902  -0.4264706   0.4754902), wk =   0.0032468
        k(  252) = (   0.4803922  -0.4411765   0.4803922), wk =   0.0032468
        k(  253) = (   0.4852941  -0.4558824   0.4852941), wk =   0.0032468
        k(  254) = (   0.4901961  -0.4705882   0.4901961), wk =   0.0032468
        k(  255) = (   0.4950980  -0.4852941   0.4950980), wk =   0.0032468
        k(  256) = (   0.5000000  -0.5000000   0.5000000), wk =   0.0032468
        k(  257) = (   0.2500000   0.2500000   0.2500000), wk =   0.0032468
        k(  258) = (   0.2450980   0.2450980   0.2549020), wk =   0.0032468
        k(  259) = (   0.2401961   0.2401961   0.2598039), wk =   0.0032468
        k(  260) = (   0.2352941   0.2352941   0.2647059), wk =   0.0032468
        k(  261) = (   0.2303922   0.2303922   0.2696078), wk =   0.0032468
        k(  262) = (   0.2254902   0.2254902   0.2745098), wk =   0.0032468
        k(  263) = (   0.2205882   0.2205882   0.2794118), wk =   0.0032468
        k(  264) = (   0.2156863   0.2156863   0.2843137), wk =   0.0032468
        k(  265) = (   0.2107843   0.2107843   0.2892157), wk =   0.0032468
        k(  266) = (   0.2058824   0.2058824   0.2941176), wk =   0.0032468
        k(  267) = (   0.2009804   0.2009804   0.2990196), wk =   0.0032468
        k(  268) = (   0.1960784   0.1960784   0.3039216), wk =   0.0032468
        k(  269) = (   0.1911765   0.1911765   0.3088235), wk =   0.0032468
        k(  270) = (   0.1862745   0.1862745   0.3137255), wk =   0.0032468
        k(  271) = (   0.1813725   0.1813725   0.3186275), wk =   0.0032468
        k(  272) = (   0.1764706   0.1764706   0.3235294), wk =   0.0032468
        k(  273) = (   0.1715686   0.1715686   0.3284314), wk =   0.0032468
        k(  274) = (   0.1666667   0.1666667   0.3333333), wk =   0.0032468
        k(  275) = (   0.1617647   0.1617647   0.3382353), wk =   0.0032468
        k(  276) = (   0.1568627   0.1568627   0.3431373), wk =   0.0032468
        k(  277) = (   0.1519608   0.1519608   0.3480392), wk =   0.0032468
        k(  278) = (   0.1470588   0.1470588   0.3529412), wk =   0.0032468
        k(  279) = (   0.1421569   0.1421569   0.3578431), wk =   0.0032468
        k(  280) = (   0.1372549   0.1372549   0.3627451), wk =   0.0032468
        k(  281) = (   0.1323529   0.1323529   0.3676471), wk =   0.0032468
        k(  282) = (   0.1274510   0.1274510   0.3725490), wk =   0.0032468
        k(  283) = (   0.1225490   0.1225490   0.3774510), wk =   0.0032468
        k(  284) = (   0.1176471   0.1176471   0.3823529), wk =   0.0032468
        k(  285) = (   0.1127451   0.1127451   0.3872549), wk =   0.0032468
        k(  286) = (   0.1078431   0.1078431   0.3921569), wk =   0.0032468
        k(  287) = (   0.1029412   0.1029412   0.3970588), wk =   0.0032468
        k(  288) = (   0.0980392   0.0980392   0.4019608), wk =   0.0032468
        k(  289) = (   0.0931373   0.0931373   0.4068627), wk =   0.0032468
        k(  290) = (   0.0882353   0.0882353   0.4117647), wk =   0.0032468
        k(  291) = (   0.0833333   0.0833333   0.4166667), wk =   0.0032468
        k(  292) = (   0.0784314   0.0784314   0.4215686), wk =   0.0032468
        k(  293) = (   0.0735294   0.0735294   0.4264706), wk =   0.0032468
        k(  294) = (   0.0686275   0.0686275   0.4313725), wk =   0.0032468
        k(  295) = (   0.0637255   0.0637255   0.4362745), wk =   0.0032468
        k(  296) = (   0.0588235   0.0588235   0.4411765), wk =   0.0032468
        k(  297) = (   0.0539216   0.0539216   0.4460784), wk =   0.0032468
        k(  298) = (   0.0490196   0.0490196   0.4509804), wk =   0.0032468
        k(  299) = (   0.0441176   0.0441176   0.4558824), wk =   0.0032468
        k(  300) = (   0.0392157   0.0392157   0.4607843), wk =   0.0032468
        k(  301) = (   0.0343137   0.0343137   0.4656863), wk =   0.0032468
        k(  302) = (   0.0294118   0.0294118   0.4705882), wk =   0.0032468
        k(  303) = (   0.0245098   0.0245098   0.4754902), wk =   0.0032468
        k(  304) = (   0.0196078   0.0196078   0.4803922), wk =   0.0032468
        k(  305) = (   0.0147059   0.0147059   0.4852941), wk =   0.0032468
        k(  306) = (   0.0098039   0.0098039   0.4901961), wk =   0.0032468
        k(  307) = (   0.0049020   0.0049020   0.4950980), wk =   0.0032468
        k(  308) = (   0.0000000   0.0000000   0.5000000), wk =   0.0032468

     Dense  grid:     3805 G-vectors     FFT dimensions: (  24,  24,  24)

     Smooth grid:     1409 G-vectors     FFT dimensions: (  15,  15,  15)

     Dynamical RAM for                 wfc:       0.03 MB

     Dynamical RAM for     wfc (w. buffer):       0.03 MB

     Dynamical RAM for           str. fact:       0.06 MB

     Dynamical RAM for           local pot:       0.00 MB

     Dynamical RAM for          nlocal pot:       0.05 MB

     Dynamical RAM for                qrad:       1.14 MB

     Dynamical RAM for          rho,v,vnew:       0.98 MB

     Dynamical RAM for           G-vectors:       0.23 MB

     Dynamical RAM for          h,s,v(r/c):       0.03 MB

     Dynamical RAM for          <psi|beta>:       0.00 MB

     Dynamical RAM for                 psi:       0.06 MB

     Dynamical RAM for                hpsi:       0.06 MB

     Dynamical RAM for                spsi:       0.06 MB

     Dynamical RAM for      wfcinit/wfcrot:       0.07 MB

     Dynamical RAM for           addusdens:       5.51 MB

     Estimated static dynamical RAM per process >       3.23 MB

     Estimated max dynamical RAM per process >       8.74 MB

     Estimated total dynamical RAM >      17.49 MB

     Check: negative core charge=   -0.000936
     Generating pointlists ...
     new r_m :   0.3572 (alat units)  1.9362 (a.u.) for type    1

     The potential is recalculated from file :
     ./tmp/fe.save/charge-density


     negative rho (up, down):  0.000E+00 4.488E-04
     Starting wfcs are   13 randomized atomic wfcs
     Checking if some PAW data can be deallocated... 

     Band Structure Calculation
     Davidson diagonalization with overlap

     Computing kpt #:     1  of   308 on this pool
     total cpu time spent up to now is        0.6 secs

     Computing kpt #:     2  of   308 on this pool
     total cpu time spent up to now is        0.6 secs

     Computing kpt #:     3  of   308 on this pool
     total cpu time spent up to now is        0.6 secs

     Computing kpt #:     4  of   308 on this pool
     total cpu time spent up to now is        0.6 secs

     Computing kpt #:     5  of   308 on this pool
     total cpu time spent up to now is        0.7 secs

     Computing kpt #:     6  of   308 on this pool
     total cpu time spent up to now is        0.7 secs

     Computing kpt #:     7  of   308 on this pool
     total cpu time spent up to now is        0.7 secs

     Computing kpt #:     8  of   308 on this pool
     total cpu time spent up to now is        0.7 secs

     Computing kpt #:     9  of   308 on this pool
     total cpu time spent up to now is        0.7 secs

     Computing kpt #:    10  of   308 on this pool
     total cpu time spent up to now is        0.7 secs

     Computing kpt #:    11  of   308 on this pool
     total cpu time spent up to now is        0.7 secs

     Computing kpt #:    12  of   308 on this pool
     total cpu time spent up to now is        0.8 secs

     Computing kpt #:    13  of   308 on this pool
     total cpu time spent up to now is        0.8 secs

     Computing kpt #:    14  of   308 on this pool
     total cpu time spent up to now is        0.8 secs

     Computing kpt #:    15  of   308 on this pool
     total cpu time spent up to now is        0.8 secs

     Computing kpt #:    16  of   308 on this pool
     total cpu time spent up to now is        0.8 secs

     Computing kpt #:    17  of   308 on this pool
     total cpu time spent up to now is        0.8 secs

     Computing kpt #:    18  of   308 on this pool
     total cpu time spent up to now is        0.9 secs

     Computing kpt #:    19  of   308 on this pool
     total cpu time spent up to now is        0.9 secs

     Computing kpt #:    20  of   308 on this pool
     total cpu time spent up to now is        0.9 secs

     Computing kpt #:    21  of   308 on this pool
     total cpu time spent up to now is        0.9 secs

     Computing kpt #:    22  of   308 on this pool
     total cpu time spent up to now is        0.9 secs

     Computing kpt #:    23  of   308 on this pool
     total cpu time spent up to now is        1.0 secs

     Computing kpt #:    24  of   308 on this pool
     total cpu time spent up to now is        1.0 secs

     Computing kpt #:    25  of   308 on this pool
     total cpu time spent up to now is        1.0 secs

     Computing kpt #:    26  of   308 on this pool
     total cpu time spent up to now is        1.0 secs

     Computing kpt #:    27  of   308 on this pool
     total cpu time spent up to now is        1.1 secs

     Computing kpt #:    28  of   308 on this pool
     total cpu time spent up to now is        1.1 secs

     Computing kpt #:    29  of   308 on this pool
     total cpu time spent up to now is        1.1 secs

     Computing kpt #:    30  of   308 on this pool
     total cpu time spent up to now is        1.1 secs

     Computing kpt #:    31  of   308 on this pool
     total cpu time spent up to now is        1.1 secs

     Computing kpt #:    32  of   308 on this pool
     total cpu time spent up to now is        1.1 secs

     Computing kpt #:    33  of   308 on this pool
     total cpu time spent up to now is        1.1 secs

     Computing kpt #:    34  of   308 on this pool
     total cpu time spent up to now is        1.2 secs

     Computing kpt #:    35  of   308 on this pool
     total cpu time spent up to now is        1.2 secs

     Computing kpt #:    36  of   308 on this pool
     total cpu time spent up to now is        1.2 secs

     Computing kpt #:    37  of   308 on this pool
     total cpu time spent up to now is        1.2 secs

     Computing kpt #:    38  of   308 on this pool
     total cpu time spent up to now is        1.2 secs

     Computing kpt #:    39  of   308 on this pool
     total cpu time spent up to now is        1.2 secs

     Computing kpt #:    40  of   308 on this pool
     total cpu time spent up to now is        1.2 secs

     Computing kpt #:    41  of   308 on this pool
     total cpu time spent up to now is        1.3 secs

     Computing kpt #:    42  of   308 on this pool
     total cpu time spent up to now is        1.3 secs

     Computing kpt #:    43  of   308 on this pool
     total cpu time spent up to now is        1.3 secs

     Computing kpt #:    44  of   308 on this pool
     total cpu time spent up to now is        1.3 secs

     Computing kpt #:    45  of   308 on this pool
     total cpu time spent up to now is        1.3 secs

     Computing kpt #:    46  of   308 on this pool
     total cpu time spent up to now is        1.3 secs

     Computing kpt #:    47  of   308 on this pool
     total cpu time spent up to now is        1.3 secs

     Computing kpt #:    48  of   308 on this pool
     total cpu time spent up to now is        1.4 secs

     Computing kpt #:    49  of   308 on this pool
     total cpu time spent up to now is        1.4 secs

     Computing kpt #:    50  of   308 on this pool
     total cpu time spent up to now is        1.4 secs

     Computing kpt #:    51  of   308 on this pool
     total cpu time spent up to now is        1.4 secs

     Computing kpt #:    52  of   308 on this pool
     total cpu time spent up to now is        1.4 secs

     Computing kpt #:    53  of   308 on this pool
     total cpu time spent up to now is        1.4 secs

     Computing kpt #:    54  of   308 on this pool
     total cpu time spent up to now is        1.5 secs

     Computing kpt #:    55  of   308 on this pool
     total cpu time spent up to now is        1.5 secs

     Computing kpt #:    56  of   308 on this pool
     total cpu time spent up to now is        1.5 secs

     Computing kpt #:    57  of   308 on this pool
     total cpu time spent up to now is        1.5 secs

     Computing kpt #:    58  of   308 on this pool
     total cpu time spent up to now is        1.5 secs

     Computing kpt #:    59  of   308 on this pool
[...]
    19.5320  21.9006  32.1775  32.8851

          k = 0.1569-0.1569 0.5784 (   173 PWs)   bands (ev):

   -67.6303 -33.1592 -33.0137 -32.9022  15.6004  16.4623  17.3203  18.6526
    19.5934  22.3523  31.5474  32.1513

          k = 0.1765-0.1765 0.5882 (   173 PWs)   bands (ev):

   -67.6300 -33.1690 -33.0250 -32.8977  15.6764  16.4272  17.2463  18.7652
    19.6330  22.7612  31.0094  31.5770

          k = 0.1961-0.1961 0.5980 (   173 PWs)   bands (ev):

   -67.6297 -33.1740 -33.0360 -32.8934  15.7397  16.4097  17.1800  18.8748
    19.6510  23.2065  30.4783  31.0394

          k = 0.2157-0.2157 0.6078 (   171 PWs)   bands (ev):

   -67.6170 -33.1272 -33.0406 -32.8876  15.7955  16.4128  17.1310  18.9808
    19.6516  23.7594  29.9555  30.5414

          k = 0.2353-0.2353 0.6176 (   167 PWs)   bands (ev):

   -67.5958 -33.0915 -33.0034 -32.8622  15.8344  16.4446  17.0906  19.0852
    19.6410  24.3299  29.4517  30.0944

          k = 0.2549-0.2549 0.6275 (   167 PWs)   bands (ev):

   -67.5964 -33.0866 -33.0173 -32.8600  15.8463  16.4807  17.0450  19.1809
    19.6169  24.8580  28.9491  29.6858

          k = 0.2745-0.2745 0.6373 (   165 PWs)   bands (ev):

   -67.5883 -33.0626 -33.0099 -32.8456  15.8467  16.5421  17.0047  19.2712
    19.5877  25.4196  28.4600  29.3300

          k = 0.2941-0.2941 0.6471 (   165 PWs)   bands (ev):

   -67.5926 -33.0467 -33.0287 -32.8520  15.8337  16.6122  16.9509  19.3545
    19.5519  26.0285  27.9678  28.9920

          k = 0.3137-0.3137 0.6569 (   163 PWs)   bands (ev):

   -67.5837 -33.0338 -32.9979 -32.8539  15.8096  16.7101  16.8937  19.4329
    19.5243  26.5704  27.5247  28.8042

          k = 0.3333-0.3333 0.6667 (   161 PWs)   bands (ev):

   -67.5747 -32.9936 -32.9936 -32.8560  15.7795  16.8224  16.8224  19.5040
    19.5040  27.0766  27.0766  28.7365

          k = 0.3529-0.3529 0.6765 (   163 PWs)   bands (ev):

   -67.5873 -33.0192 -33.0131 -32.8581  15.7458  16.7114  16.9345  19.4928
    19.5674  26.6314  27.3644  28.8528

          k = 0.3725-0.3725 0.6863 (   163 PWs)   bands (ev):

   -67.5890 -33.0268 -33.0029 -32.8600  15.7104  16.6059  17.0568  19.4924
    19.6235  26.2205  27.4490  29.2672

          k = 0.3922-0.3922 0.6961 (   162 PWs)   bands (ev):

   -67.5856 -33.0391 -32.9656 -32.8571  15.6735  16.4943  17.1864  19.5006
    19.6720  25.8329  27.4224  29.8897

          k = 0.4118-0.4118 0.7059 (   164 PWs)   bands (ev):

   -67.5980 -33.0617 -32.9794 -32.8664  15.6323  16.3699  17.3197  19.5120
    19.7114  25.4459  27.3261  30.5435

          k = 0.4314-0.4314 0.7157 (   164 PWs)   bands (ev):

   -67.5993 -33.0723 -32.9648 -32.8669  15.5872  16.2694  17.4534  19.5272
    19.7434  25.1148  27.2553  31.2293

          k = 0.4510-0.4510 0.7255 (   164 PWs)   bands (ev):

   -67.6002 -33.0813 -32.9510 -32.8658  15.5350  16.1893  17.5825  19.5402
    19.7667  24.8196  27.1917  31.9127

          k = 0.4706-0.4706 0.7353 (   164 PWs)   bands (ev):

   -67.6006 -33.0887 -32.9394 -32.8621  15.4754  16.1359  17.7014  19.5474
    19.7812  24.5657  27.1384  32.5421

          k = 0.4902-0.4902 0.7451 (   164 PWs)   bands (ev):

   -67.6004 -33.0943 -32.9309 -32.8552  15.4124  16.1108  17.8038  19.5455
    19.7873  24.3588  27.0962  33.0151

          k = 0.5098-0.5098 0.7549 (   166 PWs)   bands (ev):

   -67.6087 -33.0997 -32.9804 -32.8515  15.3376  16.1116  17.8828  19.5281
    19.7859  24.2014  27.0522  33.2006

          k = 0.5294-0.5294 0.7647 (   164 PWs)   bands (ev):

   -67.5981 -33.0928 -32.9386 -32.8513  15.2895  16.1336  17.9428  19.5025
    19.7797  24.1046  27.0366  33.1417

          k = 0.5490-0.5490 0.7745 (   164 PWs)   bands (ev):

   -67.5976 -33.0940 -32.9418 -32.8495  15.2592  16.1726  17.9544  19.4598
    19.7716  24.0675  27.0306  32.9657

          k = 0.5686-0.5686 0.7843 (   164 PWs)   bands (ev):

   -67.5964 -33.0934 -32.9465 -32.8473  15.2508  16.2255  17.9258  19.4035
    19.7647  24.0908  27.0356  32.7533

          k = 0.5882-0.5882 0.7941 (   164 PWs)   bands (ev):

   -67.5946 -33.0910 -32.9519 -32.8458  15.2668  16.2896  17.8565  19.3353
    19.7615  24.1724  27.0518  32.5396

          k = 0.6078-0.6078 0.8039 (   166 PWs)   bands (ev):

   -67.6024 -33.1069 -32.9791 -32.8556  15.3025  16.3621  17.7477  19.2577
    19.7604  24.2748  27.0566  32.3394

          k = 0.6275-0.6275 0.8137 (   166 PWs)   bands (ev):

   -67.5996 -33.1020 -32.9839 -32.8581  15.3678  16.4415  17.6086  19.1764
    19.7654  24.4599  27.0978  32.1595

          k = 0.6471-0.6471 0.8235 (   166 PWs)   bands (ev):

   -67.5961 -33.0954 -32.9882 -32.8622  15.4533  16.5264  17.4444  19.0967
    19.7734  24.6883  27.1523  32.0017

          k = 0.6667-0.6667 0.8333 (   168 PWs)   bands (ev):

   -67.6020 -33.1193 -32.9993 -32.8789  15.5515  16.6173  17.2546  19.0254
    19.7808  24.9208  27.1953  31.8657

          k = 0.6863-0.6863 0.8431 (   164 PWs)   bands (ev):

   -67.5739 -33.0737 -32.9757 -32.8538  15.6638  16.7224  17.0651  18.9762
    19.8009  25.2741  27.3470  31.7556

          k = 0.7059-0.7059 0.8529 (   164 PWs)   bands (ev):

   -67.5698 -33.0674 -32.9797 -32.8632  15.7540  16.8402  16.8635  18.9440
    19.8113  25.5987  27.4520  31.6605

          k = 0.7255-0.7255 0.8627 (   165 PWs)   bands (ev):

   -67.5693 -33.0597 -33.0019 -32.8784  15.8150  16.6604  16.9874  18.9381
    19.8217  25.9460  27.5739  31.5407

          k = 0.7451-0.7451 0.8725 (   165 PWs)   bands (ev):

   -67.5643 -33.0508 -33.0048 -32.8890  15.8358  16.4597  17.1719  18.9613
    19.8321  26.3127  27.7183  31.4762

          k = 0.7647-0.7647 0.8824 (   167 PWs)   bands (ev):

   -67.5652 -33.0715 -33.0238 -32.9006  15.8101  16.2544  17.4038  19.0122
    19.8426  26.6854  27.8811  31.4654

          k = 0.7843-0.7843 0.8922 (   165 PWs)   bands (ev):

   -67.5479 -33.0585 -33.0178 -32.8834  15.7577  16.0673  17.6592  19.0999
    19.8524  27.0962  28.1240  31.4239

          k = 0.8039-0.8039 0.9020 (   165 PWs)   bands (ev):

   -67.5410 -33.0608 -33.0291 -32.8818  15.6743  15.8836  17.9460  19.1886
    19.8639  27.5233  28.3783  31.3864

          k = 0.8235-0.8235 0.9118 (   165 PWs)   bands (ev):

   -67.5357 -33.0619 -33.0511 -32.8814  15.5764  15.7184  18.2420  19.2892
    19.8726  27.9522  28.6635  31.3244

          k = 0.8431-0.8431 0.9216 (   167 PWs)   bands (ev):

   -67.5421 -33.0684 -33.0661 -32.9265  15.4717  15.5623  18.5282  19.3922
    19.8800  28.3701  28.9452  31.3017

          k = 0.8627-0.8627 0.9314 (   170 PWs)   bands (ev):

   -67.5547 -33.0843 -33.0747 -32.9986  15.3664  15.4227  18.8060  19.4948
    19.8876  28.7974  29.2430  31.2720

          k = 0.8824-0.8824 0.9412 (   172 PWs)   bands (ev):

   -67.5635 -33.0890 -33.0734 -33.0729  15.2679  15.3022  19.0658  19.5933
    19.8944  29.2289  29.5518  31.2337

          k = 0.9020-0.9020 0.9510 (   172 PWs)   bands (ev):

   -67.5615 -33.0941 -33.0903 -33.0697  15.1790  15.1989  19.3044  19.6835
    19.9008  29.6598  29.8862  31.2122

          k = 0.9216-0.9216 0.9608 (   170 PWs)   bands (ev):

   -67.5491 -33.1055 -33.0613 -33.0501  15.1035  15.1134  19.5138  19.7700
    19.9078  30.0958  30.2675  31.2021

          k = 0.9412-0.9412 0.9706 (   170 PWs)   bands (ev):

   -67.5474 -33.1152 -33.0585 -33.0527  15.0414  15.0462  19.6837  19.8332
    19.9125  30.4982  30.5896  31.1911

          k = 0.9608-0.9608 0.9804 (   168 PWs)   bands (ev):

   -67.5354 -33.0999 -33.0446 -33.0369  14.9960  14.9979  19.8113  19.8823
    19.9230  30.8837  30.8874  31.2275

          k = 0.9804-0.9804 0.9902 (   164 PWs)   bands (ev):

   -67.5161 -33.0315 -33.0305 -33.0287  14.9684  14.9688  19.9016  19.9176
    19.9263  31.1610  31.1901  31.2647

          k = 1.0000-1.0000 1.0000 (   164 PWs)   bands (ev):

   -67.5160 -33.0314 -33.0314 -33.0314  14.9590  14.9590  19.9268  19.9268
    19.9268  31.2622  31.2622  31.2622

          k = 0.0000 0.0000 0.5000 (   168 PWs)   bands (ev):

   -67.6230 -33.0339 -32.9127 -32.9127  14.7717  17.1572  17.8554  17.8554
    18.6237  20.6390  35.3547  37.4024

          k = 0.0000-0.0098 0.5000 (   168 PWs)   bands (ev):

   -67.6230 -33.0342 -32.9127 -32.9124  14.7724  17.1546  17.8505  17.8595
    18.6285  20.6394  35.3403  37.3862

          k = 0.0000-0.0196 0.5000 (   168 PWs)   bands (ev):

   -67.6229 -33.0352 -32.9125 -32.9112  14.7743  17.1474  17.8362  17.8716
    18.6425  20.6406  35.2973  37.3423

          k = 0.0000-0.0294 0.5000 (   168 PWs)   bands (ev):

   -67.6228 -33.0367 -32.9122 -32.9092  14.7775  17.1360  17.8135  17.8909
    18.6648  20.6426  35.2260  37.2813

          k = 0.0000-0.0392 0.5000 (   168 PWs)   bands (ev):

   -67.6226 -33.0388 -32.9117 -32.9066  14.7818  17.1216  17.7837  17.9167
    18.6940  20.6454  35.1277  37.2140

          k = 0.0000-0.0490 0.5000 (   167 PWs)   bands (ev):

   -67.6171 -33.0413 -32.9112 -32.8766  14.7887  17.1064  17.7482  17.9479
    18.7288  20.6490  35.0041  37.1629

          k = 0.0000-0.0588 0.5000 (   165 PWs)   bands (ev):

   -67.6057 -33.0388 -32.8853 -32.8526  14.8087  17.0900  17.7084  17.9863
    18.7761  20.6549  34.8592  37.1006

          k = 0.0000-0.0686 0.5000 (   165 PWs)   bands (ev):

   -67.6056 -33.0416 -32.8853 -32.8503  14.8156  17.0732  17.6649  18.0255
    18.8183  20.6602  34.6932  37.0463

          k = 0.0000-0.0784 0.5000 (   165 PWs)   bands (ev):

   -67.6054 -33.0446 -32.8852 -32.8475  14.8229  17.0576  17.6188  18.0674
    18.8630  20.6662  34.5107  37.0009

          k = 0.0000-0.0882 0.5000 (   167 PWs)   bands (ev):

   -67.6166 -33.0482 -32.8945 -32.8877  14.8129  17.0439  17.5698  18.1047
    18.9091  20.6718  34.2868  36.9638

          k = 0.0000-0.0980 0.5000 (   167 PWs)   bands (ev):

   -67.6166 -33.0514 -32.8930 -32.8874  14.8203  17.0329  17.5204  18.1503
    18.9567  20.6795  34.0796  36.9338

          k = 0.0000-0.1078 0.5000 (   167 PWs)   bands (ev):

   -67.6165 -33.0547 -32.8911 -32.8870  14.8274  17.0254  17.4700  18.1970
    19.0052  20.6880  33.8643  36.9096

          k = 0.0000-0.1176 0.5000 (   169 PWs)   bands (ev):

   -67.6258 -33.0933 -32.8978 -32.8960  14.8335  17.0218  17.4189  18.2445
    19.0513  20.6970  33.5857  36.8630

          k = 0.0000-0.1275 0.5000 (   169 PWs)   bands (ev):

   -67.6257 -33.0986 -32.8975 -32.8928  14.8389  17.0228  17.3676  18.2925
    19.1003  20.7068  33.3561  36.8502

          k = 0.0000-0.1373 0.5000 (   169 PWs)   bands (ev):

   -67.6256 -33.1038 -32.8970 -32.8894  14.8430  17.0287  17.3162  18.3407
    19.1493  20.7171  33.1234  36.8404

          k = 0.0000-0.1471 0.5000 (   169 PWs)   bands (ev):

   -67.6254 -33.1091 -32.8965 -32.8859  14.8456  17.0400  17.2649  18.3889
    19.1981  20.7279  32.8886  36.8330

          k = 0.0000-0.1569 0.5000 (   169 PWs)   bands (ev):

   -67.6252 -33.1143 -32.8958 -32.8822  14.8465  17.0570  17.2139  18.4369
    19.2465  20.7393  32.6526  36.8275

          k = 0.0000-0.1667 0.5000 (   167 PWs)   bands (ev):

   -67.6147 -33.1102 -32.8923 -32.8355  14.8530  17.0905  17.1633  18.4845
    19.2956  20.7527  32.4165  36.8241

          k = 0.0000-0.1765 0.5000 (   169 PWs)   bands (ev):

   -67.6243 -33.1433 -32.9182 -32.8339  14.8499  17.1131  17.1183  18.5315
    19.3393  20.7651  32.1501  36.7965

          k = 0.0000-0.1863 0.5000 (   169 PWs)   bands (ev):

   -67.6243 -33.1483 -32.9178 -32.8317  14.8448  17.0636  17.1538  18.5778
    19.3857  20.7779  31.9129  36.7963

          k = 0.0000-0.1961 0.5000 (   169 PWs)   bands (ev):

   -67.6242 -33.1532 -32.9173 -32.8294  14.8376  17.0148  17.1956  18.6233
    19.4314  20.7909  31.6766  36.7971

          k = 0.0000-0.2059 0.5000 (   169 PWs)   bands (ev):

   -67.6240 -33.1581 -32.9166 -32.8270  14.8286  16.9669  17.2435  18.6679
    19.4762  20.8041  31.4415  36.7988

          k = 0.0000-0.2157 0.5000 (   171 PWs)   bands (ev):

   -67.6358 -33.1711 -32.9282 -32.8597  14.8112  16.9174  17.2973  18.7091
    19.5188  20.8167  31.1651  36.8008

          k = 0.0000-0.2255 0.5000 (   171 PWs)   bands (ev):

   -67.6357 -33.1762 -32.9278 -32.8579  14.7987  16.8712  17.3571  18.7515
    19.5616  20.8297  30.9336  36.8037

          k = 0.0000-0.2353 0.5000 (   171 PWs)   bands (ev):

   -67.6356 -33.1812 -32.9272 -32.8559  14.7847  16.8261  17.4225  18.7928
    19.6034  20.8426  30.7044  36.8070

          k = 0.0000-0.2451 0.5000 (   171 PWs)   bands (ev):

   -67.6355 -33.1860 -32.9266 -32.8539  14.7694  16.7821  17.4932  18.8327
    19.6440  20.8552  30.4778  36.8108

          k = 0.0000-0.2549 0.5000 (   171 PWs)   bands (ev):

   -67.6353 -33.1906 -32.9259 -32.8519  14.7528  16.7393  17.5691  18.8714
    19.6835  20.8674  30.2540  36.8149

          k = 0.0000-0.2647 0.5000 (   171 PWs)   bands (ev):

   -67.6351 -33.1951 -32.9251 -32.8498  14.7353  16.6977  17.6498  18.9087
    19.7218  20.8791  30.0333  36.8194

          k = 0.0000-0.2745 0.5000 (   171 PWs)   bands (ev):

   -67.6349 -33.1992 -32.9241 -32.8476  14.7171  16.6575  17.7349  18.9446
    19.7589  20.8901  29.8161  36.8241

          k = 0.0000-0.2843 0.5000 (   170 PWs)   bands (ev):

   -67.6290 -33.1890 -32.9231 -32.8315  14.7014  16.6185  17.8401  18.9794
    19.7947  20.9058  29.6028  36.8296

          k = 0.0000-0.2941 0.5000 (   172 PWs)   bands (ev):

   -67.6397 -33.2177 -32.9511 -32.8339  14.6813  16.5801  17.9308  19.0124
    19.8241  20.9124  29.3472  36.8310

          k = 0.0000-0.3039 0.5000 (   172 PWs)   bands (ev):

   -67.6396 -33.2220 -32.9507 -32.8322  14.6618  16.5440  18.0269  19.0440
    19.8569  20.9204  29.1424  36.8370

          k = 0.0000-0.3137 0.5000 (   170 PWs)   bands (ev):

   -67.6276 -33.1768 -32.9470 -32.8288  14.6507  16.5095  18.1518  19.0770
    19.8902  20.9887  28.9473  36.8434

          k = 0.0000-0.3235 0.5000 (   170 PWs)   bands (ev):

   -67.6275 -33.1817 -32.9465 -32.8270  14.6307  16.4765  18.2528  19.1054
    19.9201  20.9941  28.7532  36.8495

          k = 0.0000-0.3333 0.5000 (   170 PWs)   bands (ev):

   -67.6274 -33.1862 -32.9459 -32.8251  14.6111  16.4449  18.3557  19.1324
    19.9485  20.9978  28.5646  36.8556

          k = 0.0000-0.3431 0.5000 (   170 PWs)   bands (ev):

   -67.6273 -33.1904 -32.9452 -32.8232  14.5921  16.4150  18.4601  19.1580
    19.9755  20.9996  28.3821  36.8617

          k = 0.0000-0.3529 0.5000 (   170 PWs)   bands (ev):

   -67.6271 -33.1942 -32.9445 -32.8213  14.5736  16.3868  18.5654  19.1824
    20.0010  20.9994  28.2061  36.8678

          k = 0.0000-0.3627 0.5000 (   170 PWs)   bands (ev):

   -67.6269 -33.1977 -32.9437 -32.8194  14.5559  16.3601  18.6709  19.2055
    20.0250  20.9970  28.0370  36.8738

          k = 0.0000-0.3725 0.5000 (   168 PWs)   bands (ev):

   -67.6152 -33.1572 -32.9397 -32.8156  14.5424  16.3352  18.8025  19.2312
    20.0493  21.0383  27.8868  36.8801

          k = 0.0000-0.3824 0.5000 (   168 PWs)   bands (ev):

   -67.6151 -33.1612 -32.9388 -32.8138  14.5262  16.3121  18.9038  19.2531
    20.0701  21.0318  27.7346  36.8859

          k = 0.0000-0.3922 0.5000 (   168 PWs)   bands (ev):

   -67.6149 -33.1648 -32.9379 -32.8119  14.5111  16.2906  19.0017  19.2754
    20.0893  21.0229  27.5911  36.8915

          k = 0.0000-0.4020 0.5000 (   168 PWs)   bands (ev):

   -67.6148 -33.1680 -32.9368 -32.8101  14.4970  16.2710  19.0933  19.3004
    20.1070  21.0117  27.4567  36.8968

          k = 0.0000-0.4118 0.5000 (   170 PWs)   bands (ev):

   -67.6246 -33.1720 -32.9897 -32.8149  14.4775  16.2515  19.1728  19.3314
    20.1217  20.9952  27.3310  36.9018

          k = 0.0000-0.4216 0.5000 (   170 PWs)   bands (ev):

   -67.6244 -33.1744 -32.9888 -32.8130  14.4660  16.2356  19.2310  19.3798
    20.1362  20.9799  27.2168  36.9067

          k = 0.0000-0.4314 0.5000 (   170 PWs)   bands (ev):

   -67.6242 -33.1765 -32.9877 -32.8111  14.4557  16.2215  19.2665  19.4443
    20.1490  20.9632  27.1136  36.9112

          k = 0.0000-0.4412 0.5000 (   170 PWs)   bands (ev):

   -67.6239 -33.1781 -32.9866 -32.8091  14.4467  16.2092  19.2880  19.5149
    20.1602  20.9457  27.0220  36.9153

          k = 0.0000-0.4510 0.5000 (   170 PWs)   bands (ev):

   -67.6236 -33.1793 -32.9854 -32.8072  14.4390  16.1988  19.3025  19.5830
    20.1698  20.9284  26.9424  36.9189

          k = 0.0000-0.4608 0.5000 (   170 PWs)   bands (ev):

   -67.6233 -33.1801 -32.9842 -32.8053  14.4327  16.1903  19.3129  19.6441
    20.1778  20.9123  26.8755  36.9220

          k = 0.0000-0.4706 0.5000 (   174 PWs)   bands (ev):

   -67.6442 -33.2146 -33.0603 -32.8167  14.4214  16.1823  19.3188  19.6883
    20.1792  20.8716  26.7822  36.9197

          k = 0.0000-0.4804 0.5000 (   175 PWs)   bands (ev):

   -67.6491 -33.2162 -33.0599 -32.8458  14.4145  16.1776  19.3204  19.7281
    20.1836  20.8563  26.7433  36.9087

          k = 0.0000-0.4902 0.5000 (   178 PWs)   bands (ev):

   -67.6668 -33.2506 -33.0760 -32.8872  14.4073  16.1745  19.3195  19.7529
    20.1817  20.8059  26.6835  36.8924

          k = 0.0000-0.5000 0.5000 (   178 PWs)   bands (ev):

   -67.6668 -33.2508 -33.0761 -32.8872  14.4066  16.1735  19.3204  19.7614
    20.1825  20.8022  26.6765  36.8926

     Writing all to output data dir ./tmp/fe.save/
 
     init_run     :      0.24s CPU      0.28s WALL (       1 calls)
     electrons    :      5.27s CPU      5.39s WALL (       1 calls)

     Called by init_run:
     wfcinit      :      0.00s CPU      0.00s WALL (       1 calls)
     wfcinit:atom :      0.01s CPU      0.01s WALL (     308 calls)
     wfcinit:wfcr :      0.30s CPU      0.30s WALL (     308 calls)
     potinit      :      0.09s CPU      0.13s WALL (       1 calls)
     hinit0       :      0.14s CPU      0.14s WALL (       1 calls)

     Called by electrons:
     c_bands      :      5.26s CPU      5.39s WALL (       1 calls)
     v_of_rho     :      0.01s CPU      0.01s WALL (       1 calls)
     v_h          :      0.00s CPU      0.00s WALL (       1 calls)
     v_xc         :      0.01s CPU      0.01s WALL (       1 calls)
     newd         :      0.00s CPU      0.00s WALL (       1 calls)
     PAW_pot      :      0.08s CPU      0.12s WALL (       1 calls)

     Called by c_bands:
     init_us_2    :      0.01s CPU      0.01s WALL (     308 calls)
     init_us_2:cp :      0.01s CPU      0.01s WALL (     308 calls)
     cegterg      :      4.79s CPU      4.91s WALL (     510 calls)

     Called by sum_band:

     Called by *egterg:
     cdiaghg      :      0.94s CPU      0.97s WALL (    7146 calls)
     cegterg:over :      0.20s CPU      0.21s WALL (    6838 calls)
     cegterg:upda :      0.08s CPU      0.08s WALL (    6838 calls)
     cegterg:last :      0.16s CPU      0.17s WALL (    4393 calls)
     h_psi        :      3.50s CPU      3.59s WALL (    7656 calls)
     s_psi        :      0.06s CPU      0.07s WALL (    7656 calls)
     g_psi        :      0.03s CPU      0.03s WALL (    6838 calls)

     Called by h_psi:
     h_psi:calbec :      0.08s CPU      0.08s WALL (    7656 calls)
     vloc_psi     :      3.32s CPU      3.40s WALL (    7656 calls)
     add_vuspsi   :      0.07s CPU      0.07s WALL (    7656 calls)

     General routines
     calbec       :      0.07s CPU      0.08s WALL (    7656 calls)
     fft          :      0.00s CPU      0.00s WALL (      23 calls)
     ffts         :      0.00s CPU      0.00s WALL (       2 calls)
     fftw         :      3.07s CPU      3.15s WALL (  113314 calls)
     interpolate  :      0.00s CPU      0.00s WALL (       2 calls)
     davcio       :      0.02s CPU      0.02s WALL (     616 calls)
 
     Parallel routines

     PAW routines
     PAW_pot      :      0.08s CPU      0.12s WALL (       1 calls)
 
     PWSCF        :      5.85s CPU      6.06s WALL

 
   This run was terminated on:   9: 9:50  28Oct2023            

=------------------------------------------------------------------------------=
   JOB DONE.
=------------------------------------------------------------------------------=
