
     Program BANDS v.7.0 starts on 28Oct2023 at  9: 9:54 

     This program is part of the open-source Quantum ESPRESSO suite
     for quantum simulation of materials; please cite
         "P. Giannozzi et al., J. Phys.:Condens. Matter 21 395502 (2009);
         "P. Giannozzi et al., J. Phys.:Condens. Matter 29 465901 (2017);
         "P. Giannozzi et al., J. Chem. Phys. 152 154105 (2020);
          URL http://www.quantum-espresso.org", 
     in publications or presentations arising from this work. More details at
     http://www.quantum-espresso.org/quote

     Parallel version (MPI), running on     2 processors

     MPI processes distributed on     1 nodes
     R & G space division:  proc/nbgrp/npool/nimage =       2
     13092 MiB available memory on the printing compute node when the environment starts
 

     Reading xml data from directory:

     ./tmp/fe.save/
     file Fe.pbe-spn-kjpaw_psl.0.2.1.UPF: wavefunction(s)  3D renormalized

     IMPORTANT: XC functional enforced from input :
     Exchange-correlation= PBE
                           (   1   4   3   4   0   0   0)
     Any further DFT definition will be discarded
     Please, verify this is what you really want

 
     Parallelization info
     --------------------
     sticks:   dense  smooth     PW     G-vecs:    dense   smooth      PW
     Min         166      84     41                 1902      704     229
     Max         167      85     42                 1903      705     230
     Sum         333     169     83                 3805     1409     459
 
     Using Slab Decomposition
 

     Check: negative core charge=   -0.000936

     negative rho (up, down):  0.000E+00 4.488E-04
     Reading collected, re-writing distributed wavefunctions
     high-symmetry point:  0.0000 0.0000 0.0000   x coordinate   0.0000
     high-symmetry point:  1.0000-1.0000 1.0000   x coordinate   1.7321
     high-symmetry point:  0.0000-0.5000 0.5000   x coordinate   2.9568
     high-symmetry point:  0.0000 0.0000 0.0000   x coordinate   3.6639
     high-symmetry point:  0.0000 0.0000 0.5000   x coordinate   4.1639
     high-symmetry point:  1.0000-1.0000 1.0000   x coordinate   5.6639
     high-symmetry point:  0.0000 0.0000 0.5000   x coordinate   5.6639
     high-symmetry point:  0.0000-0.5000 0.5000   x coordinate   6.1639

     Plottable bands (eV) written to file fe_bands_dn.dat.gnu
     Bands written to file fe_bands_dn.dat

 **************************************************************************

                    xk=(   0.00000,   0.00000,   0.00000  )

     point group O_h (m-3m) 
     there are 10 classes
     the character table:

       E     8C3   3C2   6C4   6C2'  i     8S6   3s_h  6S4   6s_d 
A_1g   1.00  1.00  1.00  1.00  1.00  1.00  1.00  1.00  1.00  1.00
A_2g   1.00  1.00  1.00 -1.00 -1.00  1.00  1.00  1.00 -1.00 -1.00
E_g    2.00 -1.00  2.00  0.00  0.00  2.00 -1.00  2.00  0.00  0.00
T_1g   3.00  0.00 -1.00  1.00 -1.00  3.00  0.00 -1.00  1.00 -1.00
T_2g   3.00  0.00 -1.00 -1.00  1.00  3.00  0.00 -1.00 -1.00  1.00
A_1u   1.00  1.00  1.00  1.00  1.00 -1.00 -1.00 -1.00 -1.00 -1.00
A_2u   1.00  1.00  1.00 -1.00 -1.00 -1.00 -1.00 -1.00  1.00  1.00
E_u    2.00 -1.00  2.00  0.00  0.00 -2.00  1.00 -2.00  0.00  0.00
T_1u   3.00  0.00 -1.00  1.00 -1.00 -3.00  0.00  1.00 -1.00  1.00
T_2u   3.00  0.00 -1.00 -1.00  1.00 -3.00  0.00  1.00  1.00 -1.00

     the symmetry operations in each class and the name of the first element:

     E        1
                                                                 
     8C3     17   19   20   18   24   21   22   23
                                                                 
     3C2      2    4    3
                                                                 
     6C4      7    8   15   16   12   11
                                                                 
     6C2'     5    6   14   13   10    9
                                                                 
     i       25
                                                                 
     8S6     41   43   44   42   48   45   46   47
                                                                 
     3s_h    26   28   27
                                                                 
     6S4     31   32   39   40   36   35
                                                                 
     6s_d    29   30   38   37   34   33
                                                                 

     Band symmetry, O_h (m-3m)  point group:

     e(  1 -  1) =    -67.73654  eV     1   --> A_1g G_1   G_1+
     e(  2 -  4) =    -32.84414  eV     3   --> T_1u G_15  G_4-
     e(  5 -  5) =     10.14371  eV     1   --> A_1g G_1   G_1+
     e(  6 -  8) =     17.38792  eV     3   --> T_2g G_25' G_5+
     e(  9 - 10) =     19.51282  eV     2   --> E_g  G_12  G_3+
     e( 11 - 12) =     41.90335  eV     2   -->   ?

 **************************************************************************

 **************************************************************************

                    xk=(   0.01961,  -0.01961,   0.01961  )

     point group C_3v (3m)  
     there are  3 classes
     the character table:

       E     2C3   3s_v 
A_1    1.00  1.00  1.00
A_2    1.00  1.00 -1.00
E      2.00 -1.00  0.00

     the symmetry operations in each class and the name of the first element:

     E        1
                                                                 
     2C3      2    3
                                                                 
     3s_v     4    5    6
                                                                 

     Band symmetry, C_3v (3m)   point group:

     e(  1 -  1) =    -67.73592  eV     1   --> A_1  L_1       
     e(  2 -  2) =    -32.84611  eV     1   --> A_1  L_1       
     e(  3 -  4) =    -32.84393  eV     2   --> E    L_3       
     e(  5 -  5) =     10.16952  eV     1   --> A_1  L_1       
     e(  6 -  7) =     17.38272  eV     2   --> E    L_3       
     e(  8 -  8) =     17.40399  eV     1   --> A_1  L_1       
     e(  9 - 10) =     19.50880  eV     2   --> E    L_3       
     e( 11 - 12) =     41.80040  eV     2   --> E    L_3       

 **************************************************************************

 **************************************************************************

                    xk=(   0.03922,  -0.03922,   0.03922  )

     Band symmetry, C_3v (3m)   point group:

     e(  1 -  1) =    -67.73409  eV     1   --> A_1  L_1       
     e(  2 -  2) =    -32.85192  eV     1   --> A_1  L_1       
     e(  3 -  4) =    -32.84331  eV     2   --> E    L_3       
     e(  5 -  5) =     10.24668  eV     1   --> A_1  L_1       
     e(  6 -  7) =     17.36694  eV     2   --> E    L_3       
     e(  8 -  8) =     17.45207  eV     1   --> A_1  L_1       
     e(  9 - 10) =     19.49734  eV     2   --> E    L_3       
     e( 11 - 12) =     41.51246  eV     2   --> E    L_3       

 **************************************************************************

 **************************************************************************

                    xk=(   0.05882,  -0.05882,   0.05882  )

     Band symmetry, C_3v (3m)   point group:

     e(  1 -  1) =    -67.69676  eV     1   --> A_1  L_1       
     e(  2 -  3) =    -32.81221  eV     2   --> E    L_3       
     e(  4 -  4) =    -32.74582  eV     1   --> A_1  L_1       
     e(  5 -  5) =     10.44151  eV     1   --> A_1  L_1       
     e(  6 -  7) =     17.34262  eV     2   --> E    L_3       
     e(  8 -  8) =     17.53872  eV     1   --> A_1  L_1       
     e(  9 - 10) =     19.48440  eV     2   --> E    L_3       
     e( 11 - 12) =     41.09158  eV     2   --> E    L_3       

 **************************************************************************

 **************************************************************************

                    xk=(   0.07843,  -0.07843,   0.07843  )

     Band symmetry, C_3v (3m)   point group:

     e(  1 -  1) =    -67.66578  eV     1   --> A_1  L_1       
     e(  2 -  3) =    -32.75367  eV     2   --> E    L_3       
     e(  4 -  4) =    -32.72432  eV     1   --> A_1  L_1       
     e(  5 -  5) =     10.67823  eV     1   --> A_1  L_1       
     e(  6 -  7) =     17.30662  eV     2   --> E    L_3       
     e(  8 -  8) =     17.65071  eV     1   --> A_1  L_1       
     e(  9 - 10) =     19.46981  eV     2   --> E    L_3       
     e( 11 - 12) =     40.57587  eV     2   --> E    L_3       

 **************************************************************************

 **************************************************************************

                    xk=(   0.09804,  -0.09804,   0.09804  )

     Band symmetry, C_3v (3m)   point group:

     e(  1 -  1) =    -67.66305  eV     1   --> A_1  L_1       
     e(  2 -  3) =    -32.76065  eV     2   --> E    L_3       
     e(  4 -  4) =    -32.75079  eV     1   --> A_1  L_1       
     e(  5 -  5) =     10.91357  eV     1   --> A_1  L_1       
     e(  6 -  7) =     17.25587  eV     2   --> E    L_3       
     e(  8 -  8) =     17.79349  eV     1   --> A_1  L_1       
     e(  9 - 10) =     19.44735  eV     2   --> E    L_3       
     e( 11 - 12) =     39.99732  eV     2   --> E    L_3       

 **************************************************************************

 **************************************************************************

                    xk=(   0.11765,  -0.11765,   0.11765  )

     Band symmetry, C_3v (3m)   point group:

     e(  1 -  1) =    -67.65916  eV     1   --> A_1  L_1       
     e(  2 -  2) =    -32.77865  eV     1   --> A_1  L_1       
     e(  3 -  4) =    -32.76674  eV     2   --> E    L_3       
     e(  5 -  5) =     11.19313  eV     1   --> A_1  L_1       
     e(  6 -  7) =     17.19311  eV     2   --> E    L_3       
     e(  8 -  8) =     17.96631  eV     1   --> A_1  L_1       
     e(  9 - 10) =     19.42767  eV     2   --> E    L_3       
     e( 11 - 12) =     39.38288  eV     2   --> E    L_3       

 **************************************************************************

 **************************************************************************

                    xk=(   0.13725,  -0.13725,   0.13725  )

     Band symmetry, C_3v (3m)   point group:

     e(  1 -  1) =    -67.67692  eV     1   --> A_1  L_1       
     e(  2 -  2) =    -32.90123  eV     1   --> A_1  L_1       
     e(  3 -  4) =    -32.77252  eV     2   --> E    L_3       
     e(  5 -  5) =     11.52870  eV     1   --> A_1  L_1       
     e(  6 -  7) =     17.11693  eV     2   --> E    L_3       
     e(  8 -  8) =     18.16804  eV     1   --> A_1  L_1       
     e(  9 - 10) =     19.41180  eV     2   --> E    L_3       
     e( 11 - 12) =     38.70309  eV     2   --> E    L_3       

 **************************************************************************

 **************************************************************************

                    xk=(   0.15686,  -0.15686,   0.15686  )

     Band symmetry, C_3v (3m)   point group:

     e(  1 -  1) =    -67.67318  eV     1   --> A_1  L_1       
     e(  2 -  2) =    -32.93491  eV     1   --> A_1  L_1       
     e(  3 -  4) =    -32.78418  eV     2   --> E    L_3       
     e(  5 -  5) =     11.89082  eV     1   --> A_1  L_1       
     e(  6 -  7) =     17.03257  eV     2   --> E    L_3       
     e(  8 -  8) =     18.39817  eV     1   --> A_1  L_1       
     e(  9 - 10) =     19.40385  eV     2   --> E    L_3       
     e( 11 - 12) =     38.04944  eV     2   --> E    L_3       

 **************************************************************************

 **************************************************************************

                    xk=(   0.17647,  -0.17647,   0.17647  )

     Band symmetry, C_3v (3m)   point group:

     e(  1 -  1) =    -67.66871  eV     1   --> A_1  L_1       
     e(  2 -  2) =    -32.96689  eV     1   --> A_1  L_1       
     e(  3 -  4) =    -32.79557  eV     2   --> E    L_3       
     e(  5 -  5) =     12.28495  eV     1   --> A_1  L_1       
     e(  6 -  7) =     16.94045  eV     2   --> E    L_3       
     e(  8 -  8) =     18.65588  eV     1   --> A_1  L_1       
     e(  9 - 10) =     19.40391  eV     2   --> E    L_3       
     e( 11 - 12) =     37.39333  eV     2   --> E    L_3       

 **************************************************************************

 **************************************************************************

                    xk=(   0.19608,  -0.19608,   0.19608  )

     Band symmetry, C_3v (3m)   point group:

     e(  1 -  1) =    -67.66362  eV     1   --> A_1  L_1       
     e(  2 -  2) =    -32.99609  eV     1   --> A_1  L_1       
     e(  3 -  4) =    -32.80675  eV     2   --> E    L_3       
     e(  5 -  5) =     12.70573  eV     1   --> A_1  L_1       
     e(  6 -  7) =     16.84335  eV     2   --> E    L_3       
     e(  8 -  8) =     18.94068  eV     1   --> A_1  L_1       
     e(  9 - 10) =     19.41213  eV     2   --> E    L_3       
     e( 11 - 12) =     36.74002  eV     2   --> E    L_3       

 **************************************************************************

 **************************************************************************

                    xk=(   0.21569,  -0.21569,   0.21569  )

     Band symmetry, C_3v (3m)   point group:

     e(  1 -  1) =    -67.65803  eV     1   --> A_1  L_1       
     e(  2 -  2) =    -33.02143  eV     1   --> A_1  L_1       
     e(  3 -  4) =    -32.81775  eV     2   --> E    L_3       
     e(  5 -  5) =     13.14692  eV     1   --> A_1  L_1       
     e(  6 -  7) =     16.74446  eV     2   --> E    L_3       
     e(  8 -  8) =     19.25253  eV     1   --> A_1  L_1       
     e(  9 - 10) =     19.42798  eV     2   --> E    L_3       
     e( 11 - 12) =     36.09345  eV     2   --> E    L_3       

 **************************************************************************

 **************************************************************************

                    xk=(   0.23529,  -0.23529,   0.23529  )

     Band symmetry, C_3v (3m)   point group:

     e(  1 -  1) =    -67.66937  eV     1   --> A_1  L_1       
     e(  2 -  2) =    -33.13568  eV     1   --> A_1  L_1       
     e(  3 -  4) =    -32.83035  eV     2   --> E    L_3       
     e(  5 -  5) =     13.59964  eV     1   --> A_1  L_1       
     e(  6 -  7) =     16.64699  eV     2   --> E    L_3       
     e(  8 -  9) =     19.45031  eV     2   --> E    L_3       
     e( 10 - 10) =     19.58878  eV     1   --> A_1  L_1       
     e( 11 - 12) =     35.45286  eV     2   --> E    L_3       

 **************************************************************************

 **************************************************************************

                    xk=(   0.25490,  -0.25490,   0.25490  )

     Band symmetry, C_3v (3m)   point group:

     e(  1 -  1) =    -67.66437  eV     1   --> A_1  L_1       
     e(  2 -  2) =    -33.16055  eV     1   --> A_1  L_1       
     e(  3 -  4) =    -32.84136  eV     2   --> E    L_3       
     e(  5 -  5) =     14.05625  eV     1   --> A_1  L_1       
     e(  6 -  7) =     16.55428  eV     2   --> E    L_3       
     e(  8 -  9) =     19.47819  eV     2   --> E    L_3       
     e( 10 - 10) =     19.95699  eV     1   --> A_1  L_1       
     e( 11 - 12) =     34.82754  eV     2   --> E    L_3       

 **************************************************************************

 **************************************************************************

                    xk=(   0.27451,  -0.27451,   0.27451  )

     Band symmetry, C_3v (3m)   point group:

     e(  1 -  1) =    -67.65928  eV     1   --> A_1  L_1       
     e(  2 -  2) =    -33.17960  eV     1   --> A_1  L_1       
     e(  3 -  4) =    -32.85227  eV     2   --> E    L_3       
     e(  5 -  5) =     14.50647  eV     1   --> A_1  L_1       
     e(  6 -  7) =     16.46912  eV     2   --> E    L_3       
     e(  8 -  9) =     19.51013  eV     2   --> E    L_3       
     e( 10 - 10) =     20.35738  eV     1   --> A_1  L_1       
     e( 11 - 12) =     34.21616  eV     2   --> E    L_3       

 **************************************************************************

 **************************************************************************

                    xk=(   0.29412,  -0.29412,   0.29412  )

     Band symmetry, C_3v (3m)   point group:

     e(  1 -  1) =    -67.63790  eV     1   --> A_1  L_1       
     e(  2 -  2) =    -33.15472  eV     1   --> A_1  L_1       
     e(  3 -  4) =    -32.83867  eV     2   --> E    L_3       
     e(  5 -  5) =     14.98577  eV     1   --> A_1  L_1       
     e(  6 -  7) =     16.39638  eV     2   --> E    L_3       
     e(  8 -  9) =     19.54880  eV     2   --> E    L_3       
     e( 10 - 10) =     20.81603  eV     1   --> A_1  L_1       
     e( 11 - 12) =     33.62185  eV     2   --> E    L_3       

 **************************************************************************

 **************************************************************************

                    xk=(   0.31373,  -0.31373,   0.31373  )

     Band symmetry, C_3v (3m)   point group:

     e(  1 -  1) =    -67.63358  eV     1   --> A_1  L_1       
     e(  2 -  2) =    -33.16244  eV     1   --> A_1  L_1       
     e(  3 -  4) =    -32.85188  eV     2   --> E    L_3       
     e(  5 -  5) =     15.38592  eV     1   --> A_1  L_1       
     e(  6 -  7) =     16.33335  eV     2   --> E    L_3       
     e(  8 -  9) =     19.58436  eV     2   --> E    L_3       
     e( 10 - 10) =     21.29886  eV     1   --> A_1  L_1       
     e( 11 - 12) =     33.04312  eV     2   --> E    L_3       

 **************************************************************************

 **************************************************************************

                    xk=(   0.33333,  -0.33333,   0.33333  )

     Band symmetry, C_3v (3m)   point group:

     e(  1 -  1) =    -67.62932  eV     1   --> A_1  L_1       
     e(  2 -  2) =    -33.16287  eV     1   --> A_1  L_1       
     e(  3 -  4) =    -32.86471  eV     2   --> E    L_3       
     e(  5 -  5) =     15.74443  eV     1   --> A_1  L_1       
     e(  6 -  7) =     16.28384  eV     2   --> E    L_3       
     e(  8 -  9) =     19.62030  eV     2   --> E    L_3       
     e( 10 - 10) =     21.82883  eV     1   --> A_1  L_1       
     e( 11 - 12) =     32.48222  eV     2   --> E    L_3       

 **************************************************************************

 **************************************************************************

                    xk=(   0.35294,  -0.35294,   0.35294  )

     Band symmetry, C_3v (3m)   point group:

     e(  1 -  1) =    -67.59111  eV     1   --> A_1  L_1       
     e(  2 -  2) =    -33.02680  eV     1   --> A_1  L_1       
     e(  3 -  4) =    -32.86834  eV     2   --> E    L_3       
     e(  5 -  5) =     16.12209  eV     1   --> A_1  L_1       
     e(  6 -  7) =     16.25173  eV     2   --> E    L_3       
     e(  8 -  9) =     19.65682  eV     2   --> E    L_3       
     e( 10 - 10) =     22.61076  eV     1   --> A_1  L_1       
     e( 11 - 12) =     31.94027  eV     2   --> E    L_3       

 **************************************************************************

 **************************************************************************

                    xk=(   0.37255,  -0.37255,   0.37255  )

     Band symmetry, C_3v (3m)   point group:

     e(  1 -  1) =    -67.60735  eV     1   --> A_1  L_1       
     e(  2 -  2) =    -33.08774  eV     1   --> A_1  L_1       
     e(  3 -  4) =    -32.88801  eV     2   --> E    L_3       
     e(  5 -  6) =     16.23135  eV     2   --> E    L_3       
     e(  7 -  7) =     16.34413  eV     1   --> A_1  L_1       
     e(  8 -  9) =     19.68877  eV     2   --> E    L_3       
     e( 10 - 10) =     23.25236  eV     1   --> A_1  L_1       
     e( 11 - 12) =     31.40621  eV     2   --> E    L_3       

 **************************************************************************

 **************************************************************************

                    xk=(   0.39216,  -0.39216,   0.39216  )

     Band symmetry, C_3v (3m)   point group:

     e(  1 -  1) =    -67.60611  eV     1   --> A_1  L_1       
     e(  2 -  2) =    -33.08765  eV     1   --> A_1  L_1       
     e(  3 -  4) =    -32.90141  eV     2   --> E    L_3       
     e(  5 -  6) =     16.22608  eV     2   --> E    L_3       
     e(  7 -  7) =     16.51083  eV     1   --> A_1  L_1       
     e(  8 -  9) =     19.71957  eV     2   --> E    L_3       
     e( 10 - 10) =     23.95087  eV     1   --> A_1  L_1       
     e( 11 - 12) =     30.90371  eV     2   --> E    L_3       

 **************************************************************************

 **************************************************************************

                    xk=(   0.41176,  -0.41176,   0.41176  )

     Band symmetry, C_3v (3m)   point group:

     e(  1 -  1) =    -67.60487  eV     1   --> A_1  L_1       
     e(  2 -  2) =    -33.08016  eV     1   --> A_1  L_1       
     e(  3 -  4) =    -32.91401  eV     2   --> E    L_3       
     e(  5 -  6) =     16.23546  eV     2   --> E    L_3       
     e(  7 -  7) =     16.61405  eV     1   --> A_1  L_1       
     e(  8 -  9) =     19.74722  eV     2   --> E    L_3       
     e( 10 - 10) =     24.70208  eV     1   --> A_1  L_1       
     e( 11 - 12) =     30.42308  eV     2   --> E    L_3       

 **************************************************************************

 **************************************************************************

                    xk=(   0.43137,  -0.43137,   0.43137  )

     Band symmetry, C_3v (3m)   point group:

     e(  1 -  1) =    -67.60360  eV     1   --> A_1  L_1       
     e(  2 -  2) =    -33.06584  eV     1   --> A_1  L_1       
     e(  3 -  4) =    -32.92572  eV     2   --> E    L_3       
     e(  5 -  6) =     16.25862  eV     2   --> E    L_3       
     e(  7 -  7) =     16.65715  eV     1   --> A_1  L_1       
     e(  8 -  9) =     19.77102  eV     2   --> E    L_3       
     e( 10 - 10) =     25.50232  eV     1   --> A_1  L_1       
     e( 11 - 12) =     29.96560  eV     2   --> E    L_3       

 **************************************************************************

 **************************************************************************

                    xk=(   0.45098,  -0.45098,   0.45098  )

     Band symmetry, C_3v (3m)   point group:

     e(  1 -  1) =    -67.57136  eV     1   --> A_1  L_1       
     e(  2 -  2) =    -33.03965  eV     1   --> A_1  L_1       
     e(  3 -  4) =    -32.86719  eV     2   --> E    L_3       
     e(  5 -  6) =     16.30982  eV     2   --> E    L_3       
     e(  7 -  7) =     16.65958  eV     1   --> A_1  L_1       
     e(  8 -  9) =     19.79465  eV     2   --> E    L_3       
     e( 10 - 10) =     26.34914  eV     1   --> A_1  L_1       
     e( 11 - 12) =     29.57111  eV     2   --> E    L_3       

 **************************************************************************

 **************************************************************************

                    xk=(   0.47059,  -0.47059,   0.47059  )

     Band symmetry, C_3v (3m)   point group:

     e(  1 -  1) =    -67.57018  eV     1   --> A_1  L_1       
     e(  2 -  2) =    -33.01273  eV     1   --> A_1  L_1       
     e(  3 -  4) =    -32.87968  eV     2   --> E    L_3       
     e(  5 -  6) =     16.35709  eV     2   --> E    L_3       
     e(  7 -  7) =     16.60052  eV     1   --> A_1  L_1       
     e(  8 -  9) =     19.80806  eV     2   --> E    L_3       
     e( 10 - 10) =     27.21978  eV     1   --> A_1  L_1       
     e( 11 - 12) =     29.16517  eV     2   --> E    L_3       

 **************************************************************************

 **************************************************************************

                    xk=(   0.49020,  -0.49020,   0.49020  )

     Band symmetry, C_3v (3m)   point group:

     e(  1 -  1) =    -67.53502  eV     1   --> A_1  L_1       
     e(  2 -  2) =    -32.88334  eV     1   --> A_1  L_1       
     e(  3 -  4) =    -32.86297  eV     2   --> E    L_3       
     e(  5 -  6) =     16.42852  eV     2   --> E    L_3       
     e(  7 -  7) =     16.51676  eV     1   --> A_1  L_1       
     e(  8 -  9) =     19.81851  eV     2   --> E    L_3       
     e( 10 - 10) =     28.23819  eV     1   --> A_1  L_1       
     e( 11 - 12) =     28.78965  eV     2   --> E    L_3       

 **************************************************************************

 **************************************************************************

                    xk=(   0.50980,  -0.50980,   0.50980  )

     Band symmetry, C_3v (3m)   point group:

     e(  1 -  1) =    -67.53501  eV     1   --> A_1  L_1       
     e(  2 -  3) =    -32.87668  eV     2   --> E    L_3       
     e(  4 -  4) =    -32.85596  eV     1   --> A_1  L_1       
     e(  5 -  5) =     16.39552  eV     1   --> A_1  L_1       
     e(  6 -  7) =     16.48926  eV     2   --> E    L_3       
     e(  8 -  9) =     19.81847  eV     2   --> E    L_3       
     e( 10 - 11) =     28.44428  eV     2   --> E    L_3       
     e( 12 - 12) =     28.91569  eV     1   --> A_1  L_1       

 **************************************************************************

 **************************************************************************

                    xk=(   0.52941,  -0.52941,   0.52941  )

     Band symmetry, C_3v (3m)   point group:

     e(  1 -  1) =    -67.56466  eV     1   --> A_1  L_1       
     e(  2 -  2) =    -32.94124  eV     1   --> A_1  L_1       
     e(  3 -  4) =    -32.90717  eV     2   --> E    L_3       
     e(  5 -  5) =     16.21782  eV     1   --> A_1  L_1       
     e(  6 -  7) =     16.55326  eV     2   --> E    L_3       
     e(  8 -  9) =     19.80509  eV     2   --> E    L_3       
     e( 10 - 11) =     28.09904  eV     2   --> E    L_3       
     e( 12 - 12) =     29.15416  eV     1   --> A_1  L_1       

 **************************************************************************

 **************************************************************************

                    xk=(   0.54902,  -0.54902,   0.54902  )

     Band symmetry, C_3v (3m)   point group:

     e(  1 -  1) =    -67.58152  eV     1   --> A_1  L_1       
     e(  2 -  3) =    -32.95016  eV     2   --> E    L_3       
     e(  4 -  4) =    -32.93322  eV     1   --> A_1  L_1       
     e(  5 -  5) =     16.08186  eV     1   --> A_1  L_1       
     e(  6 -  7) =     16.61773  eV     2   --> E    L_3       
     e(  8 -  9) =     19.78603  eV     2   --> E    L_3       
     e( 10 - 11) =     27.76913  eV     2   --> E    L_3       
     e( 12 - 12) =     29.09662  eV     1   --> A_1  L_1       

 **************************************************************************

 **************************************************************************

                    xk=(   0.56863,  -0.56863,   0.56863  )

     Band symmetry, C_3v (3m)   point group:

     e(  1 -  1) =    -67.58210  eV     1   --> A_1  L_1       
     e(  2 -  3) =    -32.96248  eV     2   --> E    L_3       
     e(  4 -  4) =    -32.91543  eV     1   --> A_1  L_1       
     e(  5 -  5) =     15.95806  eV     1   --> A_1  L_1       
     e(  6 -  7) =     16.68060  eV     2   --> E    L_3       
     e(  8 -  9) =     19.75689  eV     2   --> E    L_3       
     e( 10 - 11) =     27.53546  eV     2   --> E    L_3       
     e( 12 - 12) =     29.01192  eV     1   --> A_1  L_1       

 **************************************************************************

 **************************************************************************

                    xk=(   0.58824,  -0.58824,   0.58824  )

     Band symmetry, C_3v (3m)   point group:

     e(  1 -  1) =    -67.58207  eV     1   --> A_1  L_1       
     e(  2 -  3) =    -32.97285  eV     2   --> E    L_3       
     e(  4 -  4) =    -32.89870  eV     1   --> A_1  L_1       
     e(  5 -  5) =     15.85465  eV     1   --> A_1  L_1       
     e(  6 -  7) =     16.73751  eV     2   --> E    L_3       
     e(  8 -  9) =     19.71773  eV     2   --> E    L_3       
     e( 10 - 11) =     27.34665  eV     2   --> E    L_3       
     e( 12 - 12) =     28.92326  eV     1   --> A_1  L_1       

 **************************************************************************

 **************************************************************************

                    xk=(   0.60784,  -0.60784,   0.60784  )

     Band symmetry, C_3v (3m)   point group:

     e(  1 -  1) =    -67.58137  eV     1   --> A_1  L_1       
     e(  2 -  3) =    -32.98120  eV     2   --> E    L_3       
     e(  4 -  4) =    -32.88381  eV     1   --> A_1  L_1       
     e(  5 -  5) =     15.77943  eV     1   --> A_1  L_1       
     e(  6 -  7) =     16.78452  eV     2   --> E    L_3       
     e(  8 -  9) =     19.66966  eV     2   --> E    L_3       
     e( 10 - 11) =     27.20529  eV     2   --> E    L_3       
     e( 12 - 12) =     28.84824  eV     1   --> A_1  L_1       

 **************************************************************************

 **************************************************************************

                    xk=(   0.62745,  -0.62745,   0.62745  )

     Band symmetry, C_3v (3m)   point group:

     e(  1 -  1) =    -67.57993  eV     1   --> A_1  L_1       
     e(  2 -  3) =    -32.98746  eV     2   --> E    L_3       
     e(  4 -  4) =    -32.87143  eV     1   --> A_1  L_1       
     e(  5 -  5) =     15.73876  eV     1   --> A_1  L_1       
     e(  6 -  7) =     16.81733  eV     2   --> E    L_3       
     e(  8 -  9) =     19.61519  eV     2   --> E    L_3       
     e( 10 - 11) =     27.11301  eV     2   --> E    L_3       
     e( 12 - 12) =     28.79166  eV     1   --> A_1  L_1       

 **************************************************************************

 **************************************************************************

                    xk=(   0.64706,  -0.64706,   0.64706  )

     Band symmetry, C_3v (3m)   point group:

     e(  1 -  1) =    -67.57773  eV     1   --> A_1  L_1       
     e(  2 -  3) =    -32.99161  eV     2   --> E    L_3       
     e(  4 -  4) =    -32.86205  eV     1   --> A_1  L_1       
     e(  5 -  5) =     15.73761  eV     1   --> A_1  L_1       
     e(  6 -  7) =     16.83141  eV     2   --> E    L_3       
     e(  8 -  9) =     19.55827  eV     2   --> E    L_3       
     e( 10 - 11) =     27.07034  eV     2   --> E    L_3       
     e( 12 - 12) =     28.75449  eV     1   --> A_1  L_1       

 **************************************************************************

 **************************************************************************

                    xk=(   0.66667,  -0.66667,   0.66667  )

     Band symmetry, C_3v (3m)   point group:

     e(  1 -  1) =    -67.57472  eV     1   --> A_1  L_1       
     e(  2 -  3) =    -32.99362  eV     2   --> E    L_3       
     e(  4 -  4) =    -32.85601  eV     1   --> A_1  L_1       
     e(  5 -  5) =     15.77954  eV     1   --> A_1  L_1       
     e(  6 -  7) =     16.82237  eV     2   --> E    L_3       
     e(  8 -  9) =     19.50405  eV     2   --> E    L_3       
     e( 10 - 11) =     27.07655  eV     2   --> E    L_3       
     e( 12 - 12) =     28.73648  eV     1   --> A_1  L_1       

 **************************************************************************

 **************************************************************************

                    xk=(   0.68627,  -0.68627,   0.68627  )

     Band symmetry, C_3v (3m)   point group:

     e(  1 -  1) =    -67.57089  eV     1   --> A_1  L_1       
     e(  2 -  3) =    -32.99351  eV     2   --> E    L_3       
     e(  4 -  4) =    -32.85347  eV     1   --> A_1  L_1       
     e(  5 -  5) =     15.86673  eV     1   --> A_1  L_1       
     e(  6 -  7) =     16.78655  eV     2   --> E    L_3       
     e(  8 -  9) =     19.45813  eV     2   --> E    L_3       
     e( 10 - 11) =     27.12983  eV     2   --> E    L_3       
     e( 12 - 12) =     28.73716  eV     1   --> A_1  L_1       

 **************************************************************************

 **************************************************************************

                    xk=(   0.70588,  -0.70588,   0.70588  )

     Band symmetry, C_3v (3m)   point group:

     e(  1 -  1) =    -67.56626  eV     1   --> A_1  L_1       
     e(  2 -  3) =    -32.99130  eV     2   --> E    L_3       
     e(  4 -  4) =    -32.85440  eV     1   --> A_1  L_1       
     e(  5 -  5) =     15.99999  eV     1   --> A_1  L_1       
     e(  6 -  7) =     16.72188  eV     2   --> E    L_3       
     e(  8 -  9) =     19.42555  eV     2   --> E    L_3       
     e( 10 - 11) =     27.22744  eV     2   --> E    L_3       
     e( 12 - 12) =     28.75617  eV     1   --> A_1  L_1       

 **************************************************************************

 **************************************************************************

                    xk=(   0.72549,  -0.72549,   0.72549  )

     Band symmetry, C_3v (3m)   point group:

     e(  1 -  1) =    -67.56084  eV     1   --> A_1  L_1       
     e(  2 -  3) =    -32.98706  eV     2   --> E    L_3       
     e(  4 -  4) =    -32.85859  eV     1   --> A_1  L_1       
     e(  5 -  5) =     16.17880  eV     1   --> A_1  L_1       
     e(  6 -  7) =     16.62851  eV     2   --> E    L_3       
     e(  8 -  9) =     19.40970  eV     2   --> E    L_3       
     e( 10 - 11) =     27.36610  eV     2   --> E    L_3       
     e( 12 - 12) =     28.79340  eV     1   --> A_1  L_1       

 **************************************************************************

 **************************************************************************

                    xk=(   0.74510,  -0.74510,   0.74510  )

     Band symmetry, C_3v (3m)   point group:

     e(  1 -  1) =    -67.52042  eV     1   --> A_1  L_1       
     e(  2 -  3) =    -32.94500  eV     2   --> E    L_3       
     e(  4 -  4) =    -32.80540  eV     1   --> A_1  L_1       
     e(  5 -  5) =     16.40901  eV     1   --> A_1  L_1       
     e(  6 -  7) =     16.51458  eV     2   --> E    L_3       
     e(  8 -  9) =     19.42858  eV     2   --> E    L_3       
     e( 10 - 11) =     27.58053  eV     2   --> E    L_3       
     e( 12 - 12) =     28.93818  eV     1   --> A_1  L_1       

 **************************************************************************

 **************************************************************************

                    xk=(   0.76471,  -0.76471,   0.76471  )

     Band symmetry, C_3v (3m)   point group:

     e(  1 -  1) =    -67.56557  eV     1   --> A_1  L_1       
     e(  2 -  3) =    -33.03644  eV     2   --> E    L_3       
     e(  4 -  4) =    -32.89068  eV     1   --> A_1  L_1       
     e(  5 -  6) =     16.34984  eV     2   --> E    L_3       
     e(  7 -  7) =     16.67253  eV     1   --> A_1  L_1       
     e(  8 -  9) =     19.44056  eV     2   --> E    L_3       
     e( 10 - 11) =     27.71715  eV     2   --> E    L_3       
     e( 12 - 12) =     28.97453  eV     1   --> A_1  L_1       

 **************************************************************************

 **************************************************************************

                    xk=(   0.78431,  -0.78431,   0.78431  )

     Band symmetry, C_3v (3m)   point group:

     e(  1 -  1) =    -67.56158  eV     1   --> A_1  L_1       
     e(  2 -  3) =    -33.03853  eV     2   --> E    L_3       
     e(  4 -  4) =    -32.90370  eV     1   --> A_1  L_1       
     e(  5 -  6) =     16.19257  eV     2   --> E    L_3       
     e(  7 -  7) =     16.97275  eV     1   --> A_1  L_1       
     e(  8 -  9) =     19.47226  eV     2   --> E    L_3       
     e( 10 - 11) =     27.95561  eV     2   --> E    L_3       
     e( 12 - 12) =     29.08288  eV     1   --> A_1  L_1       

 **************************************************************************

 **************************************************************************

                    xk=(   0.80392,  -0.80392,   0.80392  )

     Band symmetry, C_3v (3m)   point group:

     e(  1 -  1) =    -67.55704  eV     1   --> A_1  L_1       
     e(  2 -  3) =    -33.03895  eV     2   --> E    L_3       
     e(  4 -  4) =    -32.91730  eV     1   --> A_1  L_1       
     e(  5 -  6) =     16.02721  eV     2   --> E    L_3       
     e(  7 -  7) =     17.30146  eV     1   --> A_1  L_1       
     e(  8 -  9) =     19.51513  eV     2   --> E    L_3       
     e( 10 - 11) =     28.22094  eV     2   --> E    L_3       
     e( 12 - 12) =     29.21240  eV     1   --> A_1  L_1       

 **************************************************************************

 **************************************************************************

                    xk=(   0.82353,  -0.82353,   0.82353  )

     Band symmetry, C_3v (3m)   point group:

     e(  1 -  1) =    -67.52030  eV     1   --> A_1  L_1       
     e(  2 -  3) =    -33.02049  eV     2   --> E    L_3       
     e(  4 -  4) =    -32.82321  eV     1   --> A_1  L_1       
     e(  5 -  6) =     15.86001  eV     2   --> E    L_3       
     e(  7 -  7) =     17.68803  eV     1   --> A_1  L_1       
     e(  8 -  9) =     19.57169  eV     2   --> E    L_3       
     e( 10 - 11) =     28.54597  eV     2   --> E    L_3       
     e( 12 - 12) =     29.45167  eV     1   --> A_1  L_1       

 **************************************************************************

 **************************************************************************

                    xk=(   0.84314,  -0.84314,   0.84314  )

     Band symmetry, C_3v (3m)   point group:

     e(  1 -  1) =    -67.51658  eV     1   --> A_1  L_1       
     e(  2 -  3) =    -33.02035  eV     2   --> E    L_3       
     e(  4 -  4) =    -32.84788  eV     1   --> A_1  L_1       
     e(  5 -  6) =     15.69627  eV     2   --> E    L_3       
     e(  7 -  7) =     18.04707  eV     1   --> A_1  L_1       
     e(  8 -  9) =     19.62566  eV     2   --> E    L_3       
     e( 10 - 11) =     28.85475  eV     2   --> E    L_3       
     e( 12 - 12) =     29.64023  eV     1   --> A_1  L_1       

 **************************************************************************

 **************************************************************************

                    xk=(   0.86275,  -0.86275,   0.86275  )

     Band symmetry, C_3v (3m)   point group:

     e(  1 -  1) =    -67.54231  eV     1   --> A_1  L_1       
     e(  2 -  3) =    -33.05451  eV     2   --> E    L_3       
     e(  4 -  4) =    -32.94936  eV     1   --> A_1  L_1       
     e(  5 -  6) =     15.53336  eV     2   --> E    L_3       
     e(  7 -  7) =     18.40550  eV     1   --> A_1  L_1       
     e(  8 -  9) =     19.68035  eV     2   --> E    L_3       
     e( 10 - 11) =     29.17388  eV     2   --> E    L_3       
     e( 12 - 12) =     29.84881  eV     1   --> A_1  L_1       

 **************************************************************************

 **************************************************************************

                    xk=(   0.88235,  -0.88235,   0.88235  )

     Band symmetry, C_3v (3m)   point group:

     e(  1 -  1) =    -67.53928  eV     1   --> A_1  L_1       
     e(  2 -  3) =    -33.05598  eV     2   --> E    L_3       
     e(  4 -  4) =    -32.97130  eV     1   --> A_1  L_1       
     e(  5 -  6) =     15.39084  eV     2   --> E    L_3       
     e(  7 -  7) =     18.75229  eV     1   --> A_1  L_1       
     e(  8 -  9) =     19.73479  eV     2   --> E    L_3       
     e( 10 - 11) =     29.51619  eV     2   --> E    L_3       
     e( 12 - 12) =     30.07866  eV     1   --> A_1  L_1       

 **************************************************************************

 **************************************************************************

                    xk=(   0.90196,  -0.90196,   0.90196  )

     Band symmetry, C_3v (3m)   point group:

     e(  1 -  1) =    -67.55250  eV     1   --> A_1  L_1       
     e(  2 -  2) =    -33.07383  eV     1   --> A_1  L_1       
     e(  3 -  4) =    -33.05800  eV     2   --> E    L_3       
     e(  5 -  6) =     15.26438  eV     2   --> E    L_3       
     e(  7 -  7) =     19.06980  eV     1   --> A_1  L_1       
     e(  8 -  9) =     19.78540  eV     2   --> E    L_3       
     e( 10 - 11) =     29.86935  eV     2   --> E    L_3       
     e( 12 - 12) =     30.27087  eV     1   --> A_1  L_1       

 **************************************************************************

 **************************************************************************

                    xk=(   0.92157,  -0.92157,   0.92157  )

     Band symmetry, C_3v (3m)   point group:

     e(  1 -  1) =    -67.55039  eV     1   --> A_1  L_1       
     e(  2 -  2) =    -33.09490  eV     1   --> A_1  L_1       
     e(  3 -  4) =    -33.05797  eV     2   --> E    L_3       
     e(  5 -  6) =     15.15737  eV     2   --> E    L_3       
     e(  7 -  7) =     19.35392  eV     1   --> A_1  L_1       
     e(  8 -  9) =     19.83030  eV     2   --> E    L_3       
     e( 10 - 11) =     30.22705  eV     2   --> E    L_3       
     e( 12 - 12) =     30.50336  eV     1   --> A_1  L_1       

 **************************************************************************

 **************************************************************************

                    xk=(   0.94118,  -0.94118,   0.94118  )

     Band symmetry, C_3v (3m)   point group:

     e(  1 -  1) =    -67.54836  eV     1   --> A_1  L_1       
     e(  2 -  2) =    -33.11014  eV     1   --> A_1  L_1       
     e(  3 -  4) =    -33.05725  eV     2   --> E    L_3       
     e(  5 -  6) =     15.07184  eV     2   --> E    L_3       
     e(  7 -  7) =     19.58953  eV     1   --> A_1  L_1       
     e(  8 -  9) =     19.86751  eV     2   --> E    L_3       
     e( 10 - 11) =     30.57638  eV     2   --> E    L_3       
     e( 12 - 12) =     30.72507  eV     1   --> A_1  L_1       

 **************************************************************************

 **************************************************************************

                    xk=(   0.96078,  -0.96078,   0.96078  )

     Band symmetry, C_3v (3m)   point group:

     e(  1 -  1) =    -67.53066  eV     1   --> A_1  L_1       
     e(  2 -  2) =    -33.08307  eV     1   --> A_1  L_1       
     e(  3 -  4) =    -33.03542  eV     2   --> E    L_3       
     e(  5 -  6) =     15.00953  eV     2   --> E    L_3       
     e(  7 -  7) =     19.76845  eV     1   --> A_1  L_1       
     e(  8 -  9) =     19.90336  eV     2   --> E    L_3       
     e( 10 - 11) =     30.92428  eV     2   --> E    L_3       
     e( 12 - 12) =     30.98923  eV     1   --> A_1  L_1       

 **************************************************************************

 **************************************************************************

                    xk=(   0.98039,  -0.98039,   0.98039  )

     Band symmetry, C_3v (3m)   point group:

     e(  1 -  1) =    -67.51608  eV     1   --> A_1  L_1       
     e(  2 -  3) =    -33.03100  eV     2   --> E    L_3       
     e(  4 -  4) =    -33.02753  eV     1   --> A_1  L_1       
     e(  5 -  6) =     14.97173  eV     2   --> E    L_3       
     e(  7 -  7) =     19.89103  eV     1   --> A_1  L_1       
     e(  8 -  9) =     19.92141  eV     2   --> E    L_3       
     e( 10 - 11) =     31.17082  eV     2   --> E    L_3       
     e( 12 - 12) =     31.21771  eV     1   --> A_1  L_1       

 **************************************************************************

 **************************************************************************

                    xk=(   1.00000,  -1.00000,   1.00000  )

     point group O_h (m-3m) 
     there are 10 classes
     the character table:

       E     8C3   3C2   6C4   6C2'  i     8S6   3s_h  6S4   6s_d 
A_1g   1.00  1.00  1.00  1.00  1.00  1.00  1.00  1.00  1.00  1.00
A_2g   1.00  1.00  1.00 -1.00 -1.00  1.00  1.00  1.00 -1.00 -1.00
E_g    2.00 -1.00  2.00  0.00  0.00  2.00 -1.00  2.00  0.00  0.00
T_1g   3.00  0.00 -1.00  1.00 -1.00  3.00  0.00 -1.00  1.00 -1.00
T_2g   3.00  0.00 -1.00 -1.00  1.00  3.00  0.00 -1.00 -1.00  1.00
A_1u   1.00  1.00  1.00  1.00  1.00 -1.00 -1.00 -1.00 -1.00 -1.00
A_2u   1.00  1.00  1.00 -1.00 -1.00 -1.00 -1.00 -1.00  1.00  1.00
E_u    2.00 -1.00  2.00  0.00  0.00 -2.00  1.00 -2.00  0.00  0.00
T_1u   3.00  0.00 -1.00  1.00 -1.00 -3.00  0.00  1.00 -1.00  1.00
T_2u   3.00  0.00 -1.00 -1.00  1.00 -3.00  0.00  1.00  1.00 -1.00

     the symmetry operations in each class and the name of the first element:

     E        1
                                                                 
     8C3     17   19   20   18   24   21   22   23
                                                                 
     3C2      2    4    3
                                                                 
     6C4      7    8   15   16   12   11
                                                                 
     6C2'     5    6   14   13   10    9
                                                                 
     i       25
                                                                 
     8S6     41   43   44   42   48   45   46   47
                                                                 
     3s_h    26   28   27
                                                                 
     6S4     31   32   39   40   36   35
                                                                 
     6s_d    29   30   38   37   34   33
                                                                 

     Band symmetry, O_h (m-3m)  point group:

     e(  1 -  1) =    -67.51603  eV     1   --> A_1g G_1   G_1+
     e(  2 -  4) =    -33.03137  eV     3   --> T_1u G_15  G_4-
     e(  5 -  6) =     14.95903  eV     2   --> E_g  G_12  G_3+
     e(  7 -  9) =     19.92679  eV     3   --> T_2g G_25' G_5+
     e( 10 - 12) =     31.26220  eV     3   --> T_1u G_15  G_4-

 **************************************************************************

 **************************************************************************

                    xk=(   0.98039,  -0.99020,   0.99020  )

     point group C_s (m)    
     there are  2 classes
     the character table:

       E     s    
A'     1.00  1.00
A''    1.00 -1.00

     the symmetry operations in each class and the name of the first element:

     E        1
                                                                 
     s        2
                                                                 

     Band symmetry, C_s (m)     point group:

     e(  1 -  1) =    -67.51606  eV     1   --> A'             
     e(  2 -  2) =    -33.03136  eV     1   --> A'             
     e(  3 -  3) =    -33.03082  eV     1   --> A''            
     e(  4 -  4) =    -33.02964  eV     1   --> A'             
     e(  5 -  5) =     14.96519  eV     1   --> A''            
     e(  6 -  6) =     14.96559  eV     1   --> A'             
     e(  7 -  7) =     19.91057  eV     1   --> A'             
     e(  8 -  8) =     19.92055  eV     1   --> A''            
     e(  9 -  9) =     19.92596  eV     1   --> A'             
     e( 10 - 10) =     31.16504  eV     1   --> A'             
     e( 11 - 11) =     31.24869  eV     1   --> A''            
     e( 12 - 12) =     31.25838  eV     1   --> A'             

 **************************************************************************

 **************************************************************************

                    xk=(   0.96078,  -0.98039,   0.98039  )

     Band symmetry, C_s (m)     point group:

     e(  1 -  1) =    -67.51613  eV     1   --> A'             
     e(  2 -  2) =    -33.03131  eV     1   --> A'             
     e(  3 -  3) =    -33.02917  eV     1   --> A''            
     e(  4 -  4) =    -33.02447  eV     1   --> A'             
     e(  5 -  5) =     14.98358  eV     1   --> A''            
     e(  6 -  6) =     14.98518  eV     1   --> A'             
     e(  7 -  7) =     19.86226  eV     1   --> A'             
     e(  8 -  8) =     19.90198  eV     1   --> A''            
     e(  9 -  9) =     19.92347  eV     1   --> A'             
     e( 10 - 10) =     30.90549  eV     1   --> A'             
     e( 11 - 11) =     31.21010  eV     1   --> A''            
     e( 12 - 12) =     31.24713  eV     1   --> A'             

 **************************************************************************

 **************************************************************************

                    xk=(   0.94118,  -0.97059,   0.97059  )

     Band symmetry, C_s (m)     point group:

     e(  1 -  1) =    -67.54121  eV     1   --> A'             
     e(  2 -  2) =    -33.10967  eV     1   --> A'             
     e(  3 -  3) =    -33.05364  eV     1   --> A''            
     e(  4 -  4) =    -33.04119  eV     1   --> A'             
     e(  5 -  5) =     15.01390  eV     1   --> A''            
     e(  6 -  6) =     15.01749  eV     1   --> A'             
     e(  7 -  7) =     19.76492  eV     1   --> A'             
     e(  8 -  8) =     19.86069  eV     1   --> A''            
     e(  9 -  9) =     19.91447  eV     1   --> A'             
     e( 10 - 10) =     30.46152  eV     1   --> A'             
     e( 11 - 11) =     31.11225  eV     1   --> A''            
     e( 12 - 12) =     31.13878  eV     1   --> A'             

 **************************************************************************

 **************************************************************************

                    xk=(   0.92157,  -0.96078,   0.96078  )

     Band symmetry, C_s (m)     point group:

     e(  1 -  1) =    -67.54238  eV     1   --> A'             
     e(  2 -  2) =    -33.10459  eV     1   --> A'             
     e(  3 -  3) =    -33.05240  eV     1   --> A''            
     e(  4 -  4) =    -33.04164  eV     1   --> A'             
     e(  5 -  5) =     15.05608  eV     1   --> A''            
     e(  6 -  6) =     15.06228  eV     1   --> A'             
     e(  7 -  7) =     19.65272  eV     1   --> A'             
     e(  8 -  8) =     19.81731  eV     1   --> A''            
     e(  9 -  9) =     19.90785  eV     1   --> A'             
     e( 10 - 10) =     30.04193  eV     1   --> A'             
     e( 11 - 11) =     31.03912  eV     1   --> A''            
     e( 12 - 12) =     31.11176  eV     1   --> A'             

 **************************************************************************

 **************************************************************************

                    xk=(   0.90196,  -0.95098,   0.95098  )

     Band symmetry, C_s (m)     point group:

     e(  1 -  1) =    -67.54361  eV     1   --> A'             
     e(  2 -  2) =    -33.09675  eV     1   --> A'             
     e(  3 -  3) =    -33.05022  eV     1   --> A''            
     e(  4 -  4) =    -33.04186  eV     1   --> A'             
     e(  5 -  5) =     15.10951  eV     1   --> A''            
     e(  6 -  6) =     15.11894  eV     1   --> A'             
     e(  7 -  7) =     19.51352  eV     1   --> A'             
     e(  8 -  8) =     19.76370  eV     1   --> A''            
     e(  9 -  9) =     19.89948  eV     1   --> A'             
     e( 10 - 10) =     29.59254  eV     1   --> A'             
     e( 11 - 11) =     30.95853  eV     1   --> A''            
     e( 12 - 12) =     31.08286  eV     1   --> A'             

 **************************************************************************

 **************************************************************************

                    xk=(   0.88235,  -0.94118,   0.94118  )

     Band symmetry, C_s (m)     point group:

     e(  1 -  1) =    -67.56109  eV     1   --> A'             
     e(  2 -  2) =    -33.09629  eV     1   --> A'             
     e(  3 -  3) =    -33.08697  eV     1   --> A'             
     e(  4 -  4) =    -33.06935  eV     1   --> A''            
     e(  5 -  5) =     15.17264  eV     1   --> A''            
     e(  6 -  6) =     15.18605  eV     1   --> A'             
     e(  7 -  7) =     19.34788  eV     1   --> A'             
     e(  8 -  8) =     19.69203  eV     1   --> A''            
     e(  9 -  9) =     19.88421  eV     1   --> A'             
     e( 10 - 10) =     29.07553  eV     1   --> A'             
     e( 11 - 11) =     30.86527  eV     1   --> A''            
     e( 12 - 12) =     31.00551  eV     1   --> A'             

 **************************************************************************

 **************************************************************************

                    xk=(   0.86275,  -0.93137,   0.93137  )

     Band symmetry, C_s (m)     point group:

     e(  1 -  1) =    -67.56270  eV     1   --> A'             
     e(  2 -  2) =    -33.09122  eV     1   --> A'             
     e(  3 -  3) =    -33.08008  eV     1   --> A'             
     e(  4 -  4) =    -33.06622  eV     1   --> A''            
     e(  5 -  5) =     15.24630  eV     1   --> A''            
     e(  6 -  6) =     15.26373  eV     1   --> A'             
     e(  7 -  7) =     19.16416  eV     1   --> A'             
     e(  8 -  8) =     19.62154  eV     1   --> A''            
     e(  9 -  9) =     19.87210  eV     1   --> A'             
     e( 10 - 10) =     28.60904  eV     1   --> A'             
     e( 11 - 11) =     30.78463  eV     1   --> A''            
     e( 12 - 12) =     30.97359  eV     1   --> A'             

 **************************************************************************

 **************************************************************************

                    xk=(   0.84314,  -0.92157,   0.92157  )

     Band symmetry, C_s (m)     point group:

     e(  1 -  1) =    -67.55865  eV     1   --> A'             
     e(  2 -  2) =    -33.09134  eV     1   --> A'             
     e(  3 -  3) =    -33.06214  eV     1   --> A''            
     e(  4 -  4) =    -33.03654  eV     1   --> A'             
     e(  5 -  5) =     15.32885  eV     1   --> A''            
     e(  6 -  6) =     15.35086  eV     1   --> A'             
     e(  7 -  7) =     18.96537  eV     1   --> A'             
     e(  8 -  8) =     19.54534  eV     1   --> A''            
     e(  9 -  9) =     19.85840  eV     1   --> A'             
     e( 10 - 10) =     28.14864  eV     1   --> A'             
     e( 11 - 11) =     30.70692  eV     1   --> A''            
     e( 12 - 12) =     30.95505  eV     1   --> A'             

 **************************************************************************

 **************************************************************************

                    xk=(   0.82353,  -0.91176,   0.91176  )

     Band symmetry, C_s (m)     point group:

     e(  1 -  1) =    -67.54014  eV     1   --> A'             
     e(  2 -  2) =    -33.07434  eV     1   --> A'             
     e(  3 -  3) =    -33.05447  eV     1   --> A''            
     e(  4 -  4) =    -32.94160  eV     1   --> A'             
     e(  5 -  5) =     15.41941  eV     1   --> A''            
     e(  6 -  6) =     15.45044  eV     1   --> A'             
     e(  7 -  7) =     18.75463  eV     1   --> A'             
     e(  8 -  8) =     19.46572  eV     1   --> A''            
     e(  9 -  9) =     19.84336  eV     1   --> A'             
     e( 10 - 10) =     27.69708  eV     1   --> A'             
     e( 11 - 11) =     30.63644  eV     1   --> A''            
     e( 12 - 12) =     30.94650  eV     1   --> A'             

 **************************************************************************

 **************************************************************************

                    xk=(   0.80392,  -0.90196,   0.90196  )

     Band symmetry, C_s (m)     point group:

     e(  1 -  1) =    -67.54280  eV     1   --> A'             
     e(  2 -  2) =    -33.07703  eV     1   --> A'             
     e(  3 -  3) =    -33.04875  eV     1   --> A''            
     e(  4 -  4) =    -32.92897  eV     1   --> A'             
     e(  5 -  5) =     15.51617  eV     1   --> A''            
     e(  6 -  6) =     15.54999  eV     1   --> A'             
     e(  7 -  7) =     18.53303  eV     1   --> A'             
     e(  8 -  8) =     19.38361  eV     1   --> A''            
     e(  9 -  9) =     19.82672  eV     1   --> A'             
     e( 10 - 10) =     27.24926  eV     1   --> A'             
     e( 11 - 11) =     30.56929  eV     1   --> A''            
     e( 12 - 12) =     30.90976  eV     1   --> A'             

 **************************************************************************

 **************************************************************************

                    xk=(   0.78431,  -0.89216,   0.89216  )

     Band symmetry, C_s (m)     point group:

     e(  1 -  1) =    -67.54533  eV     1   --> A'             
     e(  2 -  2) =    -33.07933  eV     1   --> A'             
     e(  3 -  3) =    -33.04205  eV     1   --> A''            
     e(  4 -  4) =    -32.91403  eV     1   --> A'             
     e(  5 -  5) =     15.61785  eV     1   --> A''            
     e(  6 -  6) =     15.65270  eV     1   --> A'             
     e(  7 -  7) =     18.30825  eV     1   --> A'             
     e(  8 -  8) =     19.30162  eV     1   --> A''            
     e(  9 -  9) =     19.80895  eV     1   --> A'             
     e( 10 - 10) =     26.81432  eV     1   --> A'             
     e( 11 - 11) =     30.50912  eV     1   --> A''            
     e( 12 - 12) =     30.87717  eV     1   --> A'             

 **************************************************************************

 **************************************************************************

                    xk=(   0.76471,  -0.88235,   0.88235  )

     Band symmetry, C_s (m)     point group:

     e(  1 -  1) =    -67.54920  eV     1   --> A'             
     e(  2 -  2) =    -33.05897  eV     1   --> A'             
     e(  3 -  3) =    -33.03468  eV     1   --> A''            
     e(  4 -  4) =    -32.92376  eV     1   --> A'             
     e(  5 -  5) =     15.72269  eV     1   --> A''            
     e(  6 -  6) =     15.76137  eV     1   --> A'             
     e(  7 -  7) =     18.07303  eV     1   --> A'             
     e(  8 -  8) =     19.22110  eV     1   --> A''            
     e(  9 -  9) =     19.78694  eV     1   --> A'             
     e( 10 - 10) =     26.34284  eV     1   --> A'             
     e( 11 - 11) =     30.45847  eV     1   --> A''            
     e( 12 - 12) =     30.85811  eV     1   --> A'             

 **************************************************************************

 **************************************************************************

                    xk=(   0.74510,  -0.87255,   0.87255  )

     Band symmetry, C_s (m)     point group:

     e(  1 -  1) =    -67.55526  eV     1   --> A'             
     e(  2 -  2) =    -33.09234  eV     1   --> A'             
     e(  3 -  3) =    -33.03858  eV     1   --> A''            
     e(  4 -  4) =    -32.87283  eV     1   --> A'             
     e(  5 -  5) =     15.82862  eV     1   --> A''            
     e(  6 -  6) =     15.85412  eV     1   --> A'             
     e(  7 -  7) =     17.85640  eV     1   --> A'             
     e(  8 -  8) =     19.14169  eV     1   --> A''            
     e(  9 -  9) =     19.76057  eV     1   --> A'             
     e( 10 - 10) =     25.86558  eV     1   --> A'             
     e( 11 - 11) =     30.42423  eV     1   --> A''            
     e( 12 - 12) =     30.83161  eV     1   --> A'             

 **************************************************************************

 **************************************************************************

                    xk=(   0.72549,  -0.86275,   0.86275  )

     Band symmetry, C_s (m)     point group:

     e(  1 -  1) =    -67.55862  eV     1   --> A'             
     e(  2 -  2) =    -33.09683  eV     1   --> A'             
     e(  3 -  3) =    -33.03315  eV     1   --> A''            
     e(  4 -  4) =    -32.85883  eV     1   --> A'             
     e(  5 -  5) =     15.93271  eV     1   --> A''            
     e(  6 -  6) =     15.93929  eV     1   --> A'             
     e(  7 -  7) =     17.65661  eV     1   --> A'             
     e(  8 -  8) =     19.07318  eV     1   --> A''            
     e(  9 -  9) =     19.74085  eV     1   --> A'             
     e( 10 - 10) =     25.47767  eV     1   --> A'             
     e( 11 - 11) =     30.38817  eV     1   --> A''            
     e( 12 - 12) =     30.82007  eV     1   --> A'             

 **************************************************************************

 **************************************************************************

                    xk=(   0.70588,  -0.85294,   0.85294  )

     Band symmetry, C_s (m)     point group:

     e(  1 -  1) =    -67.58681  eV     1   --> A'             
     e(  2 -  2) =    -33.12022  eV     1   --> A'             
     e(  3 -  3) =    -33.05379  eV     1   --> A''            
     e(  4 -  4) =    -32.90556  eV     1   --> A'             
     e(  5 -  5) =     15.99444  eV     1   --> A'             
     e(  6 -  6) =     16.03179  eV     1   --> A''            
     e(  7 -  7) =     17.47147  eV     1   --> A'             
     e(  8 -  8) =     19.00052  eV     1   --> A''            
     e(  9 -  9) =     19.71591  eV     1   --> A'             
     e( 10 - 10) =     25.03913  eV     1   --> A'             
     e( 11 - 11) =     30.33748  eV     1   --> A''            
     e( 12 - 12) =     30.78879  eV     1   --> A'             

 **************************************************************************

 **************************************************************************

                    xk=(   0.68627,  -0.84314,   0.84314  )

     Band symmetry, C_s (m)     point group:

     e(  1 -  1) =    -67.57318  eV     1   --> A'             
     e(  2 -  2) =    -33.10856  eV     1   --> A'             
     e(  3 -  3) =    -33.00188  eV     1   --> A''            
     e(  4 -  4) =    -32.85764  eV     1   --> A'             
     e(  5 -  5) =     16.03270  eV     1   --> A'             
     e(  6 -  6) =     16.13146  eV     1   --> A''            
     e(  7 -  7) =     17.33298  eV     1   --> A'             
     e(  8 -  8) =     18.95248  eV     1   --> A''            
     e(  9 -  9) =     19.70047  eV     1   --> A'             
     e( 10 - 10) =     24.69540  eV     1   --> A'             
     e( 11 - 11) =     30.35488  eV     1   --> A''            
     e( 12 - 12) =     30.80916  eV     1   --> A'             

 **************************************************************************

 **************************************************************************

                    xk=(   0.66667,  -0.83333,   0.83333  )

     Band symmetry, C_s (m)     point group:

     e(  1 -  1) =    -67.58977  eV     1   --> A'             
     e(  2 -  2) =    -33.12557  eV     1   --> A'             
     e(  3 -  3) =    -33.00420  eV     1   --> A''            
     e(  4 -  4) =    -32.88726  eV     1   --> A'             
     e(  5 -  5) =     16.02396  eV     1   --> A'             
     e(  6 -  6) =     16.21672  eV     1   --> A''            
     e(  7 -  7) =     17.23131  eV     1   --> A'             
     e(  8 -  8) =     18.91521  eV     1   --> A''            
     e(  9 -  9) =     19.68296  eV     1   --> A'             
     e( 10 - 10) =     24.36212  eV     1   --> A'             
     e( 11 - 11) =     30.33494  eV     1   --> A''            
     e( 12 - 12) =     30.78989  eV     1   --> A'             

 **************************************************************************

 **************************************************************************

                    xk=(   0.64706,  -0.82353,   0.82353  )

     Band symmetry, C_s (m)     point group:

     e(  1 -  1) =    -67.59378  eV     1   --> A'             
     e(  2 -  2) =    -33.13078  eV     1   --> A'             
     e(  3 -  3) =    -33.00001  eV     1   --> A''            
     e(  4 -  4) =    -32.87855  eV     1   --> A'             
     e(  5 -  5) =     15.97846  eV     1   --> A'             
     e(  6 -  6) =     16.29113  eV     1   --> A''            
     e(  7 -  7) =     17.18248  eV     1   --> A'             
     e(  8 -  8) =     18.89449  eV     1   --> A''            
     e(  9 -  9) =     19.66997  eV     1   --> A'             
     e( 10 - 10) =     24.04721  eV     1   --> A'             
     e( 11 - 11) =     30.33913  eV     1   --> A''            
     e( 12 - 12) =     30.82368  eV     1   --> A'             

 **************************************************************************

 **************************************************************************

                    xk=(   0.62745,  -0.81373,   0.81373  )

     Band symmetry, C_s (m)     point group:

     e(  1 -  1) =    -67.62409  eV     1   --> A'             
     e(  2 -  2) =    -33.16776  eV     1   --> A'             
     e(  3 -  3) =    -33.04221  eV     1   --> A''            
     e(  4 -  4) =    -32.90169  eV     1   --> A'             
     e(  5 -  5) =     15.88303  eV     1   --> A'             
     e(  6 -  6) =     16.34650  eV     1   --> A''            
     e(  7 -  7) =     17.16364  eV     1   --> A'             
     e(  8 -  8) =     18.87584  eV     1   --> A''            
     e(  9 -  9) =     19.65515  eV     1   --> A'             
     e( 10 - 10) =     23.67595  eV     1   --> A'             
     e( 11 - 11) =     30.32719  eV     1   --> A''            
     e( 12 - 12) =     30.84626  eV     1   --> A'             

 **************************************************************************

 **************************************************************************

                    xk=(   0.60784,  -0.80392,   0.80392  )

     Band symmetry, C_s (m)     point group:

     e(  1 -  1) =    -67.62814  eV     1   --> A'             
     e(  2 -  2) =    -33.17272  eV     1   --> A'             
     e(  3 -  3) =    -33.03950  eV     1   --> A''            
     e(  4 -  4) =    -32.89496  eV     1   --> A'             
     e(  5 -  5) =     15.78968  eV     1   --> A'             
     e(  6 -  6) =     16.39341  eV     1   --> A''            
     e(  7 -  7) =     17.16522  eV     1   --> A'             
     e(  8 -  8) =     18.88732  eV     1   --> A''            
     e(  9 -  9) =     19.65194  eV     1   --> A'             
     e( 10 - 10) =     23.40293  eV     1   --> A'             
     e( 11 - 11) =     30.35719  eV     1   --> A''            
     e( 12 - 12) =     30.90784  eV     1   --> A'             

 **************************************************************************

 **************************************************************************

                    xk=(   0.58824,  -0.79412,   0.79412  )

     Band symmetry, C_s (m)     point group:

     e(  1 -  1) =    -67.63185  eV     1   --> A'             
     e(  2 -  2) =    -33.17663  eV     1   --> A'             
     e(  3 -  3) =    -33.03587  eV     1   --> A''            
     e(  4 -  4) =    -32.88905  eV     1   --> A'             
     e(  5 -  5) =     15.69229  eV     1   --> A'             
     e(  6 -  6) =     16.42662  eV     1   --> A''            
     e(  7 -  7) =     17.17126  eV     1   --> A'             
     e(  8 -  8) =     18.91404  eV     1   --> A''            
     e(  9 -  9) =     19.65455  eV     1   --> A'             
     e( 10 - 10) =     23.15061  eV     1   --> A'             
     e( 11 - 11) =     30.40119  eV     1   --> A''            
     e( 12 - 12) =     30.98394  eV     1   --> A'             

 **************************************************************************

 **************************************************************************

                    xk=(   0.56863,  -0.78431,   0.78431  )

     Band symmetry, C_s (m)     point group:

     e(  1 -  1) =    -67.63521  eV     1   --> A'             
     e(  2 -  2) =    -33.17949  eV     1   --> A'             
     e(  3 -  3) =    -33.03134  eV     1   --> A''            
     e(  4 -  4) =    -32.88407  eV     1   --> A'             
     e(  5 -  5) =     15.60000  eV     1   --> A'             
     e(  6 -  6) =     16.44695  eV     1   --> A''            
     e(  7 -  7) =     17.17164  eV     1   --> A'             
     e(  8 -  8) =     18.95420  eV     1   --> A''            
     e(  9 -  9) =     19.66282  eV     1   --> A'             
     e( 10 - 10) =     22.92001  eV     1   --> A'             
     e( 11 - 11) =     30.45993  eV     1   --> A''            
     e( 12 - 12) =     31.07539  eV     1   --> A'             

 **************************************************************************

 **************************************************************************

                    xk=(   0.54902,  -0.77451,   0.77451  )

     Band symmetry, C_s (m)     point group:

     e(  1 -  1) =    -67.61875  eV     1   --> A'             
     e(  2 -  2) =    -33.16370  eV     1   --> A'             
     e(  3 -  3) =    -32.95169  eV     1   --> A''            
     e(  4 -  4) =    -32.86156  eV     1   --> A'             
     e(  5 -  5) =     15.52472  eV     1   --> A'             
     e(  6 -  6) =     16.46378  eV     1   --> A''            
     e(  7 -  7) =     17.16409  eV     1   --> A'             
     e(  8 -  8) =     19.00659  eV     1   --> A''            
     e(  9 -  9) =     19.67662  eV     1   --> A'             
     e( 10 - 10) =     22.71579  eV     1   --> A'             
     e( 11 - 11) =     30.59651  eV     1   --> A''            
     e( 12 - 12) =     31.22719  eV     1   --> A'             

 **************************************************************************

 **************************************************************************

                    xk=(   0.52941,  -0.76471,   0.76471  )

     Band symmetry, C_s (m)     point group:

     e(  1 -  1) =    -67.62179  eV     1   --> A'             
     e(  2 -  2) =    -33.16520  eV     1   --> A'             
     e(  3 -  3) =    -32.94809  eV     1   --> A''            
     e(  4 -  4) =    -32.85843  eV     1   --> A'             
     e(  5 -  5) =     15.45954  eV     1   --> A'             
     e(  6 -  6) =     16.46266  eV     1   --> A''            
     e(  7 -  7) =     17.13647  eV     1   --> A'             
     e(  8 -  8) =     19.06605  eV     1   --> A''            
     e(  9 -  9) =     19.69236  eV     1   --> A'             
     e( 10 - 10) =     22.53161  eV     1   --> A'             
     e( 11 - 11) =     30.68554  eV     1   --> A''            
     e( 12 - 12) =     31.35196  eV     1   --> A'             

 **************************************************************************

 **************************************************************************

                    xk=(   0.50980,  -0.75490,   0.75490  )

     Band symmetry, C_s (m)     point group:

     e(  1 -  1) =    -67.62442  eV     1   --> A'             
     e(  2 -  2) =    -33.16576  eV     1   --> A'             
     e(  3 -  3) =    -32.94367  eV     1   --> A''            
     e(  4 -  4) =    -32.85642  eV     1   --> A'             
     e(  5 -  5) =     15.41233  eV     1   --> A'             
     e(  6 -  6) =     16.45409  eV     1   --> A''            
     e(  7 -  7) =     17.09140  eV     1   --> A'             
     e(  8 -  8) =     19.13064  eV     1   --> A''            
     e(  9 -  9) =     19.70869  eV     1   --> A'             
     e( 10 - 10) =     22.37204  eV     1   --> A'             
     e( 11 - 11) =     30.79108  eV     1   --> A''            
     e( 12 - 12) =     31.49311  eV     1   --> A'             

 **************************************************************************

 **************************************************************************

                    xk=(   0.49020,  -0.74510,   0.74510  )

     Band symmetry, C_s (m)     point group:

     e(  1 -  1) =    -67.62664  eV     1   --> A'             
     e(  2 -  2) =    -33.16543  eV     1   --> A'             
     e(  3 -  3) =    -32.93847  eV     1   --> A''            
     e(  4 -  4) =    -32.85547  eV     1   --> A'             
     e(  5 -  5) =     15.38471  eV     1   --> A'             
     e(  6 -  6) =     16.44006  eV     1   --> A''            
     e(  7 -  7) =     17.02896  eV     1   --> A'             
     e(  8 -  8) =     19.19761  eV     1   --> A''            
     e(  9 -  9) =     19.72292  eV     1   --> A'             
     e( 10 - 10) =     22.23752  eV     1   --> A'             
     e( 11 - 11) =     30.91339  eV     1   --> A''            
     e( 12 - 12) =     31.65006  eV     1   --> A'             

 **************************************************************************

 **************************************************************************

                    xk=(   0.47059,  -0.73529,   0.73529  )

     Band symmetry, C_s (m)     point group:

     e(  1 -  1) =    -67.62844  eV     1   --> A'             
     e(  2 -  2) =    -33.16432  eV     1   --> A'             
     e(  3 -  3) =    -32.93252  eV     1   --> A''            
     e(  4 -  4) =    -32.85550  eV     1   --> A'             
     e(  5 -  5) =     15.37763  eV     1   --> A'             
     e(  6 -  6) =     16.42233  eV     1   --> A''            
     e(  7 -  7) =     16.95035  eV     1   --> A'             
     e(  8 -  8) =     19.26453  eV     1   --> A''            
     e(  9 -  9) =     19.73256  eV     1   --> A'             
     e( 10 - 10) =     22.12791  eV     1   --> A'             
     e( 11 - 11) =     31.05258  eV     1   --> A''            
     e( 12 - 12) =     31.82129  eV     1   --> A'             

 **************************************************************************

 **************************************************************************

                    xk=(   0.45098,  -0.72549,   0.72549  )

     Band symmetry, C_s (m)     point group:

     e(  1 -  1) =    -67.62982  eV     1   --> A'             
     e(  2 -  2) =    -33.16255  eV     1   --> A'             
     e(  3 -  3) =    -32.92584  eV     1   --> A''            
     e(  4 -  4) =    -32.85637  eV     1   --> A'             
     e(  5 -  5) =     15.39142  eV     1   --> A'             
     e(  6 -  6) =     16.40241  eV     1   --> A''            
     e(  7 -  7) =     16.85760  eV     1   --> A'             
     e(  8 -  8) =     19.32944  eV     1   --> A''            
     e(  9 -  9) =     19.73568  eV     1   --> A'             
     e( 10 - 10) =     22.04224  eV     1   --> A'             
     e( 11 - 11) =     31.20857  eV     1   --> A''            
     e( 12 - 12) =     32.00377  eV     1   --> A'             

 **************************************************************************

 **************************************************************************

                    xk=(   0.43137,  -0.71569,   0.71569  )

     Band symmetry, C_s (m)     point group:

     e(  1 -  1) =    -67.61530  eV     1   --> A'             
     e(  2 -  2) =    -33.11567  eV     1   --> A'             
     e(  3 -  3) =    -32.89577  eV     1   --> A''            
     e(  4 -  4) =    -32.84470  eV     1   --> A'             
     e(  5 -  5) =     15.44288  eV     1   --> A'             
     e(  6 -  6) =     16.38615  eV     1   --> A''            
     e(  7 -  7) =     16.76199  eV     1   --> A'             
     e(  8 -  8) =     19.39344  eV     1   --> A''            
     e(  9 -  9) =     19.73286  eV     1   --> A'             
     e( 10 - 10) =     21.99500  eV     1   --> A'             
     e( 11 - 11) =     31.38250  eV     1   --> A''            
     e( 12 - 12) =     32.23339  eV     1   --> A'             

 **************************************************************************

 **************************************************************************

                    xk=(   0.41176,  -0.70588,   0.70588  )

     Band symmetry, C_s (m)     point group:

     e(  1 -  1) =    -67.62776  eV     1   --> A'             
     e(  2 -  2) =    -33.16369  eV     1   --> A'             
     e(  3 -  3) =    -32.88992  eV     1   --> A''            
     e(  4 -  4) =    -32.84882  eV     1   --> A'             
     e(  5 -  5) =     15.48388  eV     1   --> A'             
     e(  6 -  6) =     16.36391  eV     1   --> A''            
     e(  7 -  7) =     16.63133  eV     1   --> A'             
     e(  8 -  8) =     19.45034  eV     1   --> A''            
     e(  9 -  9) =     19.72051  eV     1   --> A'             
     e( 10 - 10) =     21.88090  eV     1   --> A'             
     e( 11 - 11) =     31.57122  eV     1   --> A''            
     e( 12 - 12) =     32.41386  eV     1   --> A'             

 **************************************************************************

 **************************************************************************

                    xk=(   0.39216,  -0.69608,   0.69608  )

     Band symmetry, C_s (m)     point group:

     e(  1 -  1) =    -67.62831  eV     1   --> A'             
     e(  2 -  2) =    -33.16313  eV     1   --> A'             
     e(  3 -  3) =    -32.88209  eV     1   --> A''            
     e(  4 -  4) =    -32.85169  eV     1   --> A'             
     e(  5 -  5) =     15.55476  eV     1   --> A'             
     e(  6 -  6) =     16.34305  eV     1   --> A''            
     e(  7 -  7) =     16.51508  eV     1   --> A'             
     e(  8 -  8) =     19.50187  eV     1   --> A''            
     e(  9 -  9) =     19.70170  eV     1   --> A'             
     e( 10 - 10) =     21.85338  eV     1   --> A'             
     e( 11 - 11) =     31.77555  eV     1   --> A''            
     e( 12 - 12) =     32.56907  eV     1   --> A'             

 **************************************************************************

 **************************************************************************

                    xk=(   0.37255,  -0.68627,   0.68627  )

     Band symmetry, C_s (m)     point group:

     e(  1 -  1) =    -67.61731  eV     1   --> A'             
     e(  2 -  2) =    -33.16096  eV     1   --> A'             
     e(  3 -  3) =    -32.86765  eV     1   --> A''            
     e(  4 -  4) =    -32.80937  eV     1   --> A'             
     e(  5 -  5) =     15.64401  eV     1   --> A'             
     e(  6 -  6) =     16.32336  eV     1   --> A''            
     e(  7 -  7) =     16.40543  eV     1   --> A'             
     e(  8 -  8) =     19.54875  eV     1   --> A''            
     e(  9 -  9) =     19.68202  eV     1   --> A'             
     e( 10 - 10) =     21.83822  eV     1   --> A'             
     e( 11 - 11) =     32.00458  eV     1   --> A''            
     e( 12 - 12) =     32.68951  eV     1   --> A'             

[...]

     e(  1 -  1) =    -67.62739  eV     1   --> A'             
     e(  2 -  2) =    -33.18619  eV     1   --> A'             
     e(  3 -  3) =    -32.94588  eV     1   --> A''            
     e(  4 -  4) =    -32.82512  eV     1   --> A'             
     e(  5 -  5) =     14.61114  eV     1   --> A'             
     e(  6 -  6) =     16.44495  eV     1   --> A''            
     e(  7 -  7) =     18.35574  eV     1   --> A'             
     e(  8 -  8) =     19.13241  eV     1   --> A'             
     e(  9 -  9) =     19.94854  eV     1   --> A''            
     e( 10 - 10) =     20.99781  eV     1   --> A'             
     e( 11 - 11) =     28.56461  eV     1   --> A'             
     e( 12 - 12) =     36.85562  eV     1   --> A'             

 **************************************************************************

 **************************************************************************

                    xk=(   0.00000,  -0.34314,   0.50000  )

     Band symmetry, C_s (m)     point group:

     e(  1 -  1) =    -67.62725  eV     1   --> A'             
     e(  2 -  2) =    -33.19039  eV     1   --> A'             
     e(  3 -  3) =    -32.94522  eV     1   --> A''            
     e(  4 -  4) =    -32.82324  eV     1   --> A'             
     e(  5 -  5) =     14.59206  eV     1   --> A'             
     e(  6 -  6) =     16.41503  eV     1   --> A''            
     e(  7 -  7) =     18.46011  eV     1   --> A'             
     e(  8 -  8) =     19.15804  eV     1   --> A'             
     e(  9 -  9) =     19.97554  eV     1   --> A''            
     e( 10 - 10) =     20.99962  eV     1   --> A'             
     e( 11 - 11) =     28.38211  eV     1   --> A'             
     e( 12 - 12) =     36.86174  eV     1   --> A'             

 **************************************************************************

 **************************************************************************

                    xk=(   0.00000,  -0.35294,   0.50000  )

     Band symmetry, C_s (m)     point group:

     e(  1 -  1) =    -67.62709  eV     1   --> A'             
     e(  2 -  2) =    -33.19424  eV     1   --> A'             
     e(  3 -  3) =    -32.94448  eV     1   --> A''            
     e(  4 -  4) =    -32.82135  eV     1   --> A'             
     e(  5 -  5) =     14.57360  eV     1   --> A'             
     e(  6 -  6) =     16.38676  eV     1   --> A''            
     e(  7 -  7) =     18.56537  eV     1   --> A'             
     e(  8 -  8) =     19.18237  eV     1   --> A'             
     e(  9 -  9) =     20.00103  eV     1   --> A''            
     e( 10 - 10) =     20.99940  eV     1   --> A'             
     e( 11 - 11) =     28.20609  eV     1   --> A'             
     e( 12 - 12) =     36.86780  eV     1   --> A'             

 **************************************************************************

 **************************************************************************

                    xk=(   0.00000,  -0.36275,   0.50000  )

     Band symmetry, C_s (m)     point group:

     e(  1 -  1) =    -67.62690  eV     1   --> A'             
     e(  2 -  2) =    -33.19775  eV     1   --> A'             
     e(  3 -  3) =    -32.94366  eV     1   --> A''            
     e(  4 -  4) =    -32.81945  eV     1   --> A'             
     e(  5 -  5) =     14.55587  eV     1   --> A'             
     e(  6 -  6) =     16.36015  eV     1   --> A''            
     e(  7 -  7) =     18.67090  eV     1   --> A'             
     e(  8 -  8) =     19.20551  eV     1   --> A'             
     e(  9 -  9) =     20.02501  eV     1   --> A''            
     e( 10 - 10) =     20.99699  eV     1   --> A'             
     e( 11 - 11) =     28.03705  eV     1   --> A'             
     e( 12 - 12) =     36.87377  eV     1   --> A'             

 **************************************************************************

 **************************************************************************

                    xk=(   0.00000,  -0.37255,   0.50000  )

     Band symmetry, C_s (m)     point group:

     e(  1 -  1) =    -67.61517  eV     1   --> A'             
     e(  2 -  2) =    -33.15717  eV     1   --> A'             
     e(  3 -  3) =    -32.93968  eV     1   --> A''            
     e(  4 -  4) =    -32.81564  eV     1   --> A'             
     e(  5 -  5) =     14.54243  eV     1   --> A'             
     e(  6 -  6) =     16.33524  eV     1   --> A''            
     e(  7 -  7) =     18.80245  eV     1   --> A'             
     e(  8 -  8) =     19.23123  eV     1   --> A'             
     e(  9 -  9) =     20.04931  eV     1   --> A''            
     e( 10 - 10) =     21.03828  eV     1   --> A'             
     e( 11 - 11) =     27.88684  eV     1   --> A'             
     e( 12 - 12) =     36.88014  eV     1   --> A'             

 **************************************************************************

 **************************************************************************

                    xk=(   0.00000,  -0.38235,   0.50000  )

     Band symmetry, C_s (m)     point group:

     e(  1 -  1) =    -67.61507  eV     1   --> A'             
     e(  2 -  2) =    -33.16118  eV     1   --> A'             
     e(  3 -  3) =    -32.93882  eV     1   --> A''            
     e(  4 -  4) =    -32.81380  eV     1   --> A'             
     e(  5 -  5) =     14.52624  eV     1   --> A'             
     e(  6 -  6) =     16.31206  eV     1   --> A''            
     e(  7 -  7) =     18.90379  eV     1   --> A'             
     e(  8 -  8) =     19.25307  eV     1   --> A'             
     e(  9 -  9) =     20.07010  eV     1   --> A''            
     e( 10 - 10) =     21.03179  eV     1   --> A'             
     e( 11 - 11) =     27.73461  eV     1   --> A'             
     e( 12 - 12) =     36.88591  eV     1   --> A'             

 **************************************************************************

 **************************************************************************

                    xk=(   0.00000,  -0.39216,   0.50000  )

     Band symmetry, C_s (m)     point group:

     e(  1 -  1) =    -67.61494  eV     1   --> A'             
     e(  2 -  2) =    -33.16480  eV     1   --> A'             
     e(  3 -  3) =    -32.93787  eV     1   --> A''            
     e(  4 -  4) =    -32.81195  eV     1   --> A'             
     e(  5 -  5) =     14.51108  eV     1   --> A'             
     e(  6 -  6) =     16.29063  eV     1   --> A''            
     e(  7 -  7) =     19.00172  eV     1   --> A'             
     e(  8 -  8) =     19.27543  eV     1   --> A'             
     e(  9 -  9) =     20.08932  eV     1   --> A''            
     e( 10 - 10) =     21.02290  eV     1   --> A'             
     e( 11 - 11) =     27.59105  eV     1   --> A'             
     e( 12 - 12) =     36.89148  eV     1   --> A'             

 **************************************************************************

 **************************************************************************

                    xk=(   0.00000,  -0.40196,   0.50000  )

     Band symmetry, C_s (m)     point group:

     e(  1 -  1) =    -67.61478  eV     1   --> A'             
     e(  2 -  2) =    -33.16802  eV     1   --> A'             
     e(  3 -  3) =    -32.93685  eV     1   --> A''            
     e(  4 -  4) =    -32.81009  eV     1   --> A'             
     e(  5 -  5) =     14.49701  eV     1   --> A'             
     e(  6 -  6) =     16.27098  eV     1   --> A''            
     e(  7 -  7) =     19.09335  eV     1   --> A'             
     e(  8 -  8) =     19.30041  eV     1   --> A'             
     e(  9 -  9) =     20.10696  eV     1   --> A''            
     e( 10 - 10) =     21.01168  eV     1   --> A'             
     e( 11 - 11) =     27.45673  eV     1   --> A'             
     e( 12 - 12) =     36.89683  eV     1   --> A'             

 **************************************************************************

 **************************************************************************

                    xk=(   0.00000,  -0.41176,   0.50000  )

     Band symmetry, C_s (m)     point group:

     e(  1 -  1) =    -67.62457  eV     1   --> A'             
     e(  2 -  2) =    -33.17196  eV     1   --> A'             
     e(  3 -  3) =    -32.98968  eV     1   --> A''            
     e(  4 -  4) =    -32.81494  eV     1   --> A'             
     e(  5 -  5) =     14.47749  eV     1   --> A'             
     e(  6 -  6) =     16.25153  eV     1   --> A''            
     e(  7 -  7) =     19.17279  eV     1   --> A'             
     e(  8 -  8) =     19.33136  eV     1   --> A'             
     e(  9 -  9) =     20.12174  eV     1   --> A''            
     e( 10 - 10) =     20.99519  eV     1   --> A'             
     e( 11 - 11) =     27.33103  eV     1   --> A'             
     e( 12 - 12) =     36.90184  eV     1   --> A'             

 **************************************************************************

 **************************************************************************

                    xk=(   0.00000,  -0.42157,   0.50000  )

     Band symmetry, C_s (m)     point group:

     e(  1 -  1) =    -67.62439  eV     1   --> A'             
     e(  2 -  2) =    -33.17442  eV     1   --> A'             
     e(  3 -  3) =    -32.98876  eV     1   --> A''            
     e(  4 -  4) =    -32.81300  eV     1   --> A'             
     e(  5 -  5) =     14.46595  eV     1   --> A'             
     e(  6 -  6) =     16.23559  eV     1   --> A''            
     e(  7 -  7) =     19.23101  eV     1   --> A'             
     e(  8 -  8) =     19.37979  eV     1   --> A'             
     e(  9 -  9) =     20.13619  eV     1   --> A''            
     e( 10 - 10) =     20.97990  eV     1   --> A'             
     e( 11 - 11) =     27.21684  eV     1   --> A'             
     e( 12 - 12) =     36.90670  eV     1   --> A'             

 **************************************************************************

 **************************************************************************

                    xk=(   0.00000,  -0.43137,   0.50000  )

     Band symmetry, C_s (m)     point group:

     e(  1 -  1) =    -67.62417  eV     1   --> A'             
     e(  2 -  2) =    -33.17648  eV     1   --> A'             
     e(  3 -  3) =    -32.98774  eV     1   --> A''            
     e(  4 -  4) =    -32.81106  eV     1   --> A'             
     e(  5 -  5) =     14.45567  eV     1   --> A'             
     e(  6 -  6) =     16.22148  eV     1   --> A''            
     e(  7 -  7) =     19.26647  eV     1   --> A'             
     e(  8 -  8) =     19.44435  eV     1   --> A'             
     e(  9 -  9) =     20.14903  eV     1   --> A''            
     e( 10 - 10) =     20.96318  eV     1   --> A'             
     e( 11 - 11) =     27.11364  eV     1   --> A'             
     e( 12 - 12) =     36.91118  eV     1   --> A'             

 **************************************************************************

 **************************************************************************

                    xk=(   0.00000,  -0.44118,   0.50000  )

     Band symmetry, C_s (m)     point group:

     e(  1 -  1) =    -67.62392  eV     1   --> A'             
     e(  2 -  2) =    -33.17811  eV     1   --> A'             
     e(  3 -  3) =    -32.98663  eV     1   --> A''            
     e(  4 -  4) =    -32.80914  eV     1   --> A'             
     e(  5 -  5) =     14.44667  eV     1   --> A'             
     e(  6 -  6) =     16.20922  eV     1   --> A''            
     e(  7 -  7) =     19.28800  eV     1   --> A'             
     e(  8 -  8) =     19.51488  eV     1   --> A'             
     e(  9 -  9) =     20.16024  eV     1   --> A''            
     e( 10 - 10) =     20.94571  eV     1   --> A'             
     e( 11 - 11) =     27.02200  eV     1   --> A'             
     e( 12 - 12) =     36.91525  eV     1   --> A'             

 **************************************************************************

 **************************************************************************

                    xk=(   0.00000,  -0.45098,   0.50000  )

     Band symmetry, C_s (m)     point group:

     e(  1 -  1) =    -67.62365  eV     1   --> A'             
     e(  2 -  2) =    -33.17933  eV     1   --> A'             
     e(  3 -  3) =    -32.98543  eV     1   --> A''            
     e(  4 -  4) =    -32.80721  eV     1   --> A'             
     e(  5 -  5) =     14.43900  eV     1   --> A'             
     e(  6 -  6) =     16.19881  eV     1   --> A''            
     e(  7 -  7) =     19.30247  eV     1   --> A'             
     e(  8 -  8) =     19.58303  eV     1   --> A'             
     e(  9 -  9) =     20.16982  eV     1   --> A''            
     e( 10 - 10) =     20.92837  eV     1   --> A'             
     e( 11 - 11) =     26.94245  eV     1   --> A'             
     e( 12 - 12) =     36.91887  eV     1   --> A'             

 **************************************************************************

 **************************************************************************

                    xk=(   0.00000,  -0.46078,   0.50000  )

     Band symmetry, C_s (m)     point group:

     e(  1 -  1) =    -67.62334  eV     1   --> A'             
     e(  2 -  2) =    -33.18012  eV     1   --> A'             
     e(  3 -  3) =    -32.98415  eV     1   --> A''            
     e(  4 -  4) =    -32.80530  eV     1   --> A'             
     e(  5 -  5) =     14.43270  eV     1   --> A'             
     e(  6 -  6) =     16.19028  eV     1   --> A''            
     e(  7 -  7) =     19.31285  eV     1   --> A'             
     e(  8 -  8) =     19.64410  eV     1   --> A'             
     e(  9 -  9) =     20.17777  eV     1   --> A''            
     e( 10 - 10) =     20.91230  eV     1   --> A'             
     e( 11 - 11) =     26.87550  eV     1   --> A'             
     e( 12 - 12) =     36.92202  eV     1   --> A'             

 **************************************************************************

 **************************************************************************

                    xk=(   0.00000,  -0.47059,   0.50000  )

     Band symmetry, C_s (m)     point group:

     e(  1 -  1) =    -67.64416  eV     1   --> A'             
     e(  2 -  2) =    -33.21463  eV     1   --> A'             
     e(  3 -  3) =    -33.06025  eV     1   --> A''            
     e(  4 -  4) =    -32.81666  eV     1   --> A'             
     e(  5 -  5) =     14.42136  eV     1   --> A'             
     e(  6 -  6) =     16.18232  eV     1   --> A''            
     e(  7 -  7) =     19.31884  eV     1   --> A'             
     e(  8 -  8) =     19.68834  eV     1   --> A'             
     e(  9 -  9) =     20.17915  eV     1   --> A''            
     e( 10 - 10) =     20.87163  eV     1   --> A'             
     e( 11 - 11) =     26.78220  eV     1   --> A'             
     e( 12 - 12) =     36.91972  eV     1   --> A'             

 **************************************************************************

 **************************************************************************

                    xk=(   0.00000,  -0.48039,   0.50000  )

     Band symmetry, C_s (m)     point group:

     e(  1 -  1) =    -67.64907  eV     1   --> A'             
     e(  2 -  2) =    -33.21622  eV     1   --> A'             
     e(  3 -  3) =    -33.05990  eV     1   --> A''            
     e(  4 -  4) =    -32.84577  eV     1   --> A'             
     e(  5 -  5) =     14.41451  eV     1   --> A'             
     e(  6 -  6) =     16.17759  eV     1   --> A''            
     e(  7 -  7) =     19.32038  eV     1   --> A'             
     e(  8 -  8) =     19.72811  eV     1   --> A'             
     e(  9 -  9) =     20.18362  eV     1   --> A''            
     e( 10 - 10) =     20.85632  eV     1   --> A'             
     e( 11 - 11) =     26.74335  eV     1   --> A'             
     e( 12 - 12) =     36.90871  eV     1   --> A'             

 **************************************************************************

 **************************************************************************

                    xk=(   0.00000,  -0.49020,   0.50000  )

     Band symmetry, C_s (m)     point group:

     e(  1 -  1) =    -67.66682  eV     1   --> A'             
     e(  2 -  2) =    -33.25061  eV     1   --> A'             
     e(  3 -  3) =    -33.07605  eV     1   --> A''            
     e(  4 -  4) =    -32.88718  eV     1   --> A'             
     e(  5 -  5) =     14.40731  eV     1   --> A'             
     e(  6 -  6) =     16.17448  eV     1   --> A''            
     e(  7 -  7) =     19.31945  eV     1   --> A'             
     e(  8 -  8) =     19.75287  eV     1   --> A'             
     e(  9 -  9) =     20.18168  eV     1   --> A''            
     e( 10 - 10) =     20.80592  eV     1   --> A'             
     e( 11 - 11) =     26.68350  eV     1   --> A'             
     e( 12 - 12) =     36.89238  eV     1   --> A'             

 **************************************************************************

 **************************************************************************

                    xk=(   0.00000,  -0.50000,   0.50000  )

     point group D_2h (mmm) 
     there are  8 classes
     the character table:

       E     C2    C2'   C2''  i     s_v   s_v'  s_v''
A_g    1.00  1.00  1.00  1.00  1.00  1.00  1.00  1.00
B_1g   1.00  1.00 -1.00 -1.00  1.00  1.00 -1.00 -1.00
B_2g   1.00 -1.00  1.00 -1.00  1.00 -1.00  1.00 -1.00
B_3g   1.00 -1.00 -1.00  1.00  1.00 -1.00 -1.00  1.00
A_u    1.00  1.00  1.00  1.00 -1.00 -1.00 -1.00 -1.00
B_1u   1.00  1.00 -1.00 -1.00 -1.00 -1.00  1.00  1.00
B_2u   1.00 -1.00  1.00 -1.00 -1.00  1.00 -1.00  1.00
B_3u   1.00 -1.00 -1.00  1.00 -1.00  1.00  1.00 -1.00

     the symmetry operations in each class and the name of the first element:

     E        1
                                                                 
     C2       2
                                                                 
     C2'      3
                                                                 
     C2''     4
                                                                 
     i        5
                                                                 
     s_v      6
                                                                 
     s_v'     7
                                                                 
     s_v''    8
                                                                 

     Band symmetry, D_2h (mmm)  point group:

     e(  1 -  1) =    -67.66683  eV     1   --> A_g            
     e(  2 -  2) =    -33.25082  eV     1   --> B_3u           
     e(  3 -  3) =    -33.07609  eV     1   --> B_1u           
     e(  4 -  4) =    -32.88717  eV     1   --> B_2u           
     e(  5 -  5) =     14.40661  eV     1   --> A_g            
     e(  6 -  6) =     16.17354  eV     1   --> B_3g           
     e(  7 -  7) =     19.32039  eV     1   --> A_g            
     e(  8 -  8) =     19.76137  eV     1   --> B_1g           
     e(  9 -  9) =     20.18252  eV     1   --> B_2g           
     e( 10 - 10) =     20.80217  eV     1   --> B_3u           
     e( 11 - 11) =     26.67649  eV     1   --> A_g            
     e( 12 - 12) =     36.89265  eV     1   --> B_2u           

 **************************************************************************
 
     BANDS        :      2.62s CPU      3.23s WALL

 
   This run was terminated on:   9: 9:57  28Oct2023            

=------------------------------------------------------------------------------=
   JOB DONE.
=------------------------------------------------------------------------------=
