
     Program BANDS v.7.0 starts on 28Oct2023 at  9: 9:50 

     This program is part of the open-source Quantum ESPRESSO suite
     for quantum simulation of materials; please cite
         "P. Giannozzi et al., J. Phys.:Condens. Matter 21 395502 (2009);
         "P. Giannozzi et al., J. Phys.:Condens. Matter 29 465901 (2017);
         "P. Giannozzi et al., J. Chem. Phys. 152 154105 (2020);
          URL http://www.quantum-espresso.org", 
     in publications or presentations arising from this work. More details at
     http://www.quantum-espresso.org/quote

     Parallel version (MPI), running on     2 processors

     MPI processes distributed on     1 nodes
     R & G space division:  proc/nbgrp/npool/nimage =       2
     13085 MiB available memory on the printing compute node when the environment starts
 

     Reading xml data from directory:

     ./tmp/fe.save/
     file Fe.pbe-spn-kjpaw_psl.0.2.1.UPF: wavefunction(s)  3D renormalized

     IMPORTANT: XC functional enforced from input :
     Exchange-correlation= PBE
                           (   1   4   3   4   0   0   0)
     Any further DFT definition will be discarded
     Please, verify this is what you really want

 
     Parallelization info
     --------------------
     sticks:   dense  smooth     PW     G-vecs:    dense   smooth      PW
     Min         166      84     41                 1902      704     229
     Max         167      85     42                 1903      705     230
     Sum         333     169     83                 3805     1409     459
 
     Using Slab Decomposition
 

     Check: negative core charge=   -0.000936

     negative rho (up, down):  0.000E+00 4.488E-04
     Reading collected, re-writing distributed wavefunctions
     high-symmetry point:  0.0000 0.0000 0.0000   x coordinate   0.0000
     high-symmetry point:  1.0000-1.0000 1.0000   x coordinate   1.7321
     high-symmetry point:  0.0000-0.5000 0.5000   x coordinate   2.9568
     high-symmetry point:  0.0000 0.0000 0.0000   x coordinate   3.6639
     high-symmetry point:  0.0000 0.0000 0.5000   x coordinate   4.1639
     high-symmetry point:  1.0000-1.0000 1.0000   x coordinate   5.6639
     high-symmetry point:  0.0000 0.0000 0.5000   x coordinate   5.6639
     high-symmetry point:  0.0000-0.5000 0.5000   x coordinate   6.1639

     Plottable bands (eV) written to file fe_bands_up.dat.gnu
     Bands written to file fe_bands_up.dat

 **************************************************************************

                    xk=(   0.00000,   0.00000,   0.00000  )

     point group O_h (m-3m) 
     there are 10 classes
     the character table:

       E     8C3   3C2   6C4   6C2'  i     8S6   3s_h  6S4   6s_d 
A_1g   1.00  1.00  1.00  1.00  1.00  1.00  1.00  1.00  1.00  1.00
A_2g   1.00  1.00  1.00 -1.00 -1.00  1.00  1.00  1.00 -1.00 -1.00
E_g    2.00 -1.00  2.00  0.00  0.00  2.00 -1.00  2.00  0.00  0.00
T_1g   3.00  0.00 -1.00  1.00 -1.00  3.00  0.00 -1.00  1.00 -1.00
T_2g   3.00  0.00 -1.00 -1.00  1.00  3.00  0.00 -1.00 -1.00  1.00
A_1u   1.00  1.00  1.00  1.00  1.00 -1.00 -1.00 -1.00 -1.00 -1.00
A_2u   1.00  1.00  1.00 -1.00 -1.00 -1.00 -1.00 -1.00  1.00  1.00
E_u    2.00 -1.00  2.00  0.00  0.00 -2.00  1.00 -2.00  0.00  0.00
T_1u   3.00  0.00 -1.00  1.00 -1.00 -3.00  0.00  1.00 -1.00  1.00
T_2u   3.00  0.00 -1.00 -1.00  1.00 -3.00  0.00  1.00  1.00 -1.00

     the symmetry operations in each class and the name of the first element:

     E        1
                                                                 
     8C3     17   19   20   18   24   21   22   23
                                                                 
     3C2      2    4    3
                                                                 
     6C4      7    8   15   16   12   11
                                                                 
     6C2'     5    6   14   13   10    9
                                                                 
     i       25
                                                                 
     8S6     41   43   44   42   48   45   46   47
                                                                 
     3s_h    26   28   27
                                                                 
     6S4     31   32   39   40   36   35
                                                                 
     6s_d    29   30   38   37   34   33
                                                                 

     Band symmetry, O_h (m-3m)  point group:

     e(  1 -  1) =    -70.61450  eV     1   --> A_1g G_1   G_1+
     e(  2 -  4) =    -35.68044  eV     3   --> T_1u G_15  G_4-
     e(  5 -  5) =      9.90004  eV     1   --> A_1g G_1   G_1+
     e(  6 -  8) =     15.29098  eV     3   --> T_2g G_25' G_5+
     e(  9 - 10) =     16.30023  eV     2   --> E_g  G_12  G_3+
     e( 11 - 12) =     42.04211  eV     2   -->   ?

 **************************************************************************

 **************************************************************************

                    xk=(   0.01961,  -0.01961,   0.01961  )

     point group C_3v (3m)  
     there are  3 classes
     the character table:

       E     2C3   3s_v 
A_1    1.00  1.00  1.00
A_2    1.00  1.00 -1.00
E      2.00 -1.00  0.00

     the symmetry operations in each class and the name of the first element:

     E        1
                                                                 
     2C3      2    3
                                                                 
     3s_v     4    5    6
                                                                 

     Band symmetry, C_3v (3m)   point group:

     e(  1 -  1) =    -70.61392  eV     1   --> A_1  L_1       
     e(  2 -  2) =    -35.68205  eV     1   --> A_1  L_1       
     e(  3 -  4) =    -35.68018  eV     2   --> E    L_3       
     e(  5 -  5) =      9.92580  eV     1   --> A_1  L_1       
     e(  6 -  7) =     15.28695  eV     2   --> E    L_3       
     e(  8 -  8) =     15.30564  eV     1   --> A_1  L_1       
     e(  9 - 10) =     16.29741  eV     2   --> E    L_3       
     e( 11 - 12) =     41.91224  eV     2   --> E    L_3       

 **************************************************************************

 **************************************************************************

                    xk=(   0.03922,  -0.03922,   0.03922  )

     Band symmetry, C_3v (3m)   point group:

     e(  1 -  1) =    -70.61217  eV     1   --> A_1  L_1       
     e(  2 -  2) =    -35.68681  eV     1   --> A_1  L_1       
     e(  3 -  4) =    -35.67940  eV     2   --> E    L_3       
     e(  5 -  5) =     10.00276  eV     1   --> A_1  L_1       
     e(  6 -  7) =     15.27456  eV     2   --> E    L_3       
     e(  8 -  8) =     15.34957  eV     1   --> A_1  L_1       
     e(  9 - 10) =     16.28952  eV     2   --> E    L_3       
     e( 11 - 12) =     41.55789  eV     2   --> E    L_3       

 **************************************************************************

 **************************************************************************

                    xk=(   0.05882,  -0.05882,   0.05882  )

     Band symmetry, C_3v (3m)   point group:

     e(  1 -  1) =    -70.57333  eV     1   --> A_1  L_1       
     e(  2 -  3) =    -35.64713  eV     2   --> E    L_3       
     e(  4 -  4) =    -35.57175  eV     1   --> A_1  L_1       
     e(  5 -  5) =     10.20014  eV     1   --> A_1  L_1       
     e(  6 -  7) =     15.25619  eV     2   --> E    L_3       
     e(  8 -  8) =     15.43099  eV     1   --> A_1  L_1       
     e(  9 - 10) =     16.28442  eV     2   --> E    L_3       
     e( 11 - 12) =     41.05735  eV     2   --> E    L_3       

 **************************************************************************

 **************************************************************************

                    xk=(   0.07843,  -0.07843,   0.07843  )

     Band symmetry, C_3v (3m)   point group:

     e(  1 -  1) =    -70.54042  eV     1   --> A_1  L_1       
     e(  2 -  3) =    -35.58501  eV     2   --> E    L_3       
     e(  4 -  4) =    -35.54622  eV     1   --> A_1  L_1       
     e(  5 -  5) =     10.43890  eV     1   --> A_1  L_1       
     e(  6 -  7) =     15.22810  eV     2   --> E    L_3       
     e(  8 -  8) =     15.53447  eV     1   --> A_1  L_1       
     e(  9 - 10) =     16.28049  eV     2   --> E    L_3       
     e( 11 - 12) =     40.46271  eV     2   --> E    L_3       

 **************************************************************************

 **************************************************************************

                    xk=(   0.09804,  -0.09804,   0.09804  )

     Band symmetry, C_3v (3m)   point group:

     e(  1 -  1) =    -70.53807  eV     1   --> A_1  L_1       
     e(  2 -  3) =    -35.59187  eV     2   --> E    L_3       
     e(  4 -  4) =    -35.57017  eV     1   --> A_1  L_1       
     e(  5 -  5) =     10.67189  eV     1   --> A_1  L_1       
     e(  6 -  7) =     15.18556  eV     2   --> E    L_3       
     e(  8 -  8) =     15.66752  eV     1   --> A_1  L_1       
     e(  9 - 10) =     16.26737  eV     2   --> E    L_3       
     e( 11 - 12) =     39.81139  eV     2   --> E    L_3       

 **************************************************************************

 **************************************************************************

                    xk=(   0.11765,  -0.11765,   0.11765  )

     Band symmetry, C_3v (3m)   point group:

     e(  1 -  1) =    -70.53460  eV     1   --> A_1  L_1       
     e(  2 -  3) =    -35.59771  eV     2   --> E    L_3       
     e(  4 -  4) =    -35.59505  eV     1   --> A_1  L_1       
     e(  5 -  5) =     10.94703  eV     1   --> A_1  L_1       
     e(  6 -  7) =     15.13205  eV     2   --> E    L_3       
     e(  8 -  8) =     15.83038  eV     1   --> A_1  L_1       
     e(  9 - 10) =     16.25832  eV     2   --> E    L_3       
     e( 11 - 12) =     39.13260  eV     2   --> E    L_3       

 **************************************************************************

 **************************************************************************

                    xk=(   0.13725,  -0.13725,   0.13725  )

     Band symmetry, C_3v (3m)   point group:

     e(  1 -  1) =    -70.55383  eV     1   --> A_1  L_1       
     e(  2 -  2) =    -35.72049  eV     1   --> A_1  L_1       
     e(  3 -  4) =    -35.60249  eV     2   --> E    L_3       
     e(  5 -  5) =     11.27547  eV     1   --> A_1  L_1       
     e(  6 -  7) =     15.06462  eV     2   --> E    L_3       
     e(  8 -  8) =     16.02253  eV     1   --> A_1  L_1       
     e(  9 - 10) =     16.25272  eV     2   --> E    L_3       
     e( 11 - 12) =     38.39127  eV     2   --> E    L_3       

 **************************************************************************

 **************************************************************************

                    xk=(   0.15686,  -0.15686,   0.15686  )

     Band symmetry, C_3v (3m)   point group:

     e(  1 -  1) =    -70.55066  eV     1   --> A_1  L_1       
     e(  2 -  2) =    -35.75085  eV     1   --> A_1  L_1       
     e(  3 -  4) =    -35.61391  eV     2   --> E    L_3       
     e(  5 -  5) =     11.62567  eV     1   --> A_1  L_1       
     e(  6 -  7) =     14.99182  eV     2   --> E    L_3       
     e(  8 -  8) =     16.24671  eV     1   --> A_1  L_1       
     e(  9 - 10) =     16.25501  eV     2   --> E    L_3       
     e( 11 - 12) =     37.68831  eV     2   --> E    L_3       

 **************************************************************************

 **************************************************************************

                    xk=(   0.17647,  -0.17647,   0.17647  )

     Band symmetry, C_3v (3m)   point group:

     e(  1 -  1) =    -70.54677  eV     1   --> A_1  L_1       
     e(  2 -  2) =    -35.77936  eV     1   --> A_1  L_1       
     e(  3 -  4) =    -35.62494  eV     2   --> E    L_3       
     e(  5 -  5) =     12.00115  eV     1   --> A_1  L_1       
     e(  6 -  7) =     14.91308  eV     2   --> E    L_3       
     e(  8 -  9) =     16.26359  eV     2   --> E    L_3       
     e( 10 - 10) =     16.50385  eV     1   --> A_1  L_1       
     e( 11 - 12) =     36.98915  eV     2   --> E    L_3       

 **************************************************************************

 **************************************************************************

                    xk=(   0.19608,  -0.19608,   0.19608  )

     Band symmetry, C_3v (3m)   point group:

     e(  1 -  1) =    -70.54225  eV     1   --> A_1  L_1       
     e(  2 -  2) =    -35.80503  eV     1   --> A_1  L_1       
     e(  3 -  4) =    -35.63563  eV     2   --> E    L_3       
     e(  5 -  5) =     12.39401  eV     1   --> A_1  L_1       
     e(  6 -  7) =     14.83146  eV     2   --> E    L_3       
     e(  8 -  9) =     16.27775  eV     2   --> E    L_3       
     e( 10 - 10) =     16.79646  eV     1   --> A_1  L_1       
     e( 11 - 12) =     36.29817  eV     2   --> E    L_3       

 **************************************************************************

 **************************************************************************

                    xk=(   0.21569,  -0.21569,   0.21569  )

     Band symmetry, C_3v (3m)   point group:

     e(  1 -  1) =    -70.53722  eV     1   --> A_1  L_1       
     e(  2 -  2) =    -35.82689  eV     1   --> A_1  L_1       
     e(  3 -  4) =    -35.64600  eV     2   --> E    L_3       
     e(  5 -  5) =     12.79501  eV     1   --> A_1  L_1       
     e(  6 -  7) =     14.75021  eV     2   --> E    L_3       
     e(  8 -  9) =     16.29641  eV     2   --> E    L_3       
     e( 10 - 10) =     17.12801  eV     1   --> A_1  L_1       
     e( 11 - 12) =     35.61848  eV     2   --> E    L_3       

 **************************************************************************

 **************************************************************************

                    xk=(   0.23529,  -0.23529,   0.23529  )

     Band symmetry, C_3v (3m)   point group:

     e(  1 -  1) =    -70.54917  eV     1   --> A_1  L_1       
     e(  2 -  2) =    -35.94308  eV     1   --> A_1  L_1       
     e(  3 -  4) =    -35.65783  eV     2   --> E    L_3       
     e(  5 -  5) =     13.19156  eV     1   --> A_1  L_1       
     e(  6 -  7) =     14.67233  eV     2   --> E    L_3       
     e(  8 -  9) =     16.31807  eV     2   --> E    L_3       
     e( 10 - 10) =     17.49834  eV     1   --> A_1  L_1       
     e( 11 - 12) =     34.94831  eV     2   --> E    L_3       

 **************************************************************************

 **************************************************************************

                    xk=(   0.25490,  -0.25490,   0.25490  )

     Band symmetry, C_3v (3m)   point group:

     e(  1 -  1) =    -70.54470  eV     1   --> A_1  L_1       
     e(  2 -  2) =    -35.96533  eV     1   --> A_1  L_1       
     e(  3 -  4) =    -35.66793  eV     2   --> E    L_3       
     e(  5 -  5) =     13.57366  eV     1   --> A_1  L_1       
     e(  6 -  7) =     14.60106  eV     2   --> E    L_3       
     e(  8 -  9) =     16.34201  eV     2   --> E    L_3       
     e( 10 - 10) =     17.92139  eV     1   --> A_1  L_1       
     e( 11 - 12) =     34.29702  eV     2   --> E    L_3       

 **************************************************************************

 **************************************************************************

                    xk=(   0.27451,  -0.27451,   0.27451  )

     Band symmetry, C_3v (3m)   point group:

     e(  1 -  1) =    -70.54009  eV     1   --> A_1  L_1       
     e(  2 -  2) =    -35.98206  eV     1   --> A_1  L_1       
     e(  3 -  4) =    -35.67780  eV     2   --> E    L_3       
     e(  5 -  5) =     13.92948  eV     1   --> A_1  L_1       
     e(  6 -  7) =     14.53879  eV     2   --> E    L_3       
     e(  8 -  9) =     16.36683  eV     2   --> E    L_3       
     e( 10 - 10) =     18.39805  eV     1   --> A_1  L_1       
     e( 11 - 12) =     33.66247  eV     2   --> E    L_3       

 **************************************************************************

 **************************************************************************

                    xk=(   0.29412,  -0.29412,   0.29412  )

     Band symmetry, C_3v (3m)   point group:

     e(  1 -  1) =    -70.51751  eV     1   --> A_1  L_1       
     e(  2 -  2) =    -35.95254  eV     1   --> A_1  L_1       
     e(  3 -  4) =    -35.66203  eV     2   --> E    L_3       
     e(  5 -  5) =     14.28559  eV     1   --> A_1  L_1       
     e(  6 -  7) =     14.49087  eV     2   --> E    L_3       
     e(  8 -  9) =     16.39672  eV     2   --> E    L_3       
     e( 10 - 10) =     18.96725  eV     1   --> A_1  L_1       
     e( 11 - 12) =     33.04744  eV     2   --> E    L_3       

 **************************************************************************

 **************************************************************************

                    xk=(   0.31373,  -0.31373,   0.31373  )

     Band symmetry, C_3v (3m)   point group:

     e(  1 -  1) =    -70.51364  eV     1   --> A_1  L_1       
     e(  2 -  2) =    -35.95880  eV     1   --> A_1  L_1       
     e(  3 -  4) =    -35.67401  eV     2   --> E    L_3       
     e(  5 -  6) =     14.45237  eV     2   --> E    L_3       
     e(  7 -  7) =     14.55621  eV     1   --> A_1  L_1       
     e(  8 -  9) =     16.41969  eV     2   --> E    L_3       
     e( 10 - 10) =     19.56727  eV     1   --> A_1  L_1       
     e( 11 - 12) =     32.45002  eV     2   --> E    L_3       

 **************************************************************************

 **************************************************************************

                    xk=(   0.33333,  -0.33333,   0.33333  )

     Band symmetry, C_3v (3m)   point group:

     e(  1 -  1) =    -70.50977  eV     1   --> A_1  L_1       
     e(  2 -  2) =    -35.95822  eV     1   --> A_1  L_1       
     e(  3 -  4) =    -35.68550  eV     2   --> E    L_3       
     e(  5 -  6) =     14.42775  eV     2   --> E    L_3       
     e(  7 -  7) =     14.77757  eV     1   --> A_1  L_1       
     e(  8 -  9) =     16.44098  eV     2   --> E    L_3       
     e( 10 - 10) =     20.22612  eV     1   --> A_1  L_1       
     e( 11 - 12) =     31.87222  eV     2   --> E    L_3       

 **************************************************************************

 **************************************************************************

                    xk=(   0.35294,  -0.35294,   0.35294  )

     Band symmetry, C_3v (3m)   point group:

     e(  1 -  1) =    -70.47154  eV     1   --> A_1  L_1       
     e(  2 -  2) =    -35.81271  eV     1   --> A_1  L_1       
     e(  3 -  4) =    -35.68766  eV     2   --> E    L_3       
     e(  5 -  6) =     14.42123  eV     2   --> E    L_3       
     e(  7 -  7) =     14.98196  eV     1   --> A_1  L_1       
     e(  8 -  9) =     16.46148  eV     2   --> E    L_3       
     e( 10 - 10) =     21.19037  eV     1   --> A_1  L_1       
     e( 11 - 12) =     31.31491  eV     2   --> E    L_3       

 **************************************************************************

 **************************************************************************

                    xk=(   0.37255,  -0.37255,   0.37255  )

     Band symmetry, C_3v (3m)   point group:

     e(  1 -  1) =    -70.48869  eV     1   --> A_1  L_1       
     e(  2 -  2) =    -35.87861  eV     1   --> A_1  L_1       
     e(  3 -  4) =    -35.70572  eV     2   --> E    L_3       
     e(  5 -  6) =     14.42542  eV     2   --> E    L_3       
     e(  7 -  7) =     15.07808  eV     1   --> A_1  L_1       
     e(  8 -  9) =     16.47526  eV     2   --> E    L_3       
     e( 10 - 10) =     21.95938  eV     1   --> A_1  L_1       
     e( 11 - 12) =     30.76643  eV     2   --> E    L_3       

 **************************************************************************

 **************************************************************************

                    xk=(   0.39216,  -0.39216,   0.39216  )

     Band symmetry, C_3v (3m)   point group:

     e(  1 -  1) =    -70.48773  eV     1   --> A_1  L_1       
     e(  2 -  2) =    -35.88007  eV     1   --> A_1  L_1       
     e(  3 -  4) =    -35.71746  eV     2   --> E    L_3       
     e(  5 -  6) =     14.44420  eV     2   --> E    L_3       
     e(  7 -  7) =     15.13520  eV     1   --> A_1  L_1       
     e(  8 -  9) =     16.48790  eV     2   --> E    L_3       
     e( 10 - 10) =     22.77708  eV     1   --> A_1  L_1       
     e( 11 - 12) =     30.25116  eV     2   --> E    L_3       

 **************************************************************************

 **************************************************************************

                    xk=(   0.41176,  -0.41176,   0.41176  )

     Band symmetry, C_3v (3m)   point group:

     e(  1 -  1) =    -70.48670  eV     1   --> A_1  L_1       
     e(  2 -  2) =    -35.87452  eV     1   --> A_1  L_1       
     e(  3 -  4) =    -35.72833  eV     2   --> E    L_3       
     e(  5 -  6) =     14.47673  eV     2   --> E    L_3       
     e(  7 -  7) =     15.14602  eV     1   --> A_1  L_1       
     e(  8 -  9) =     16.49744  eV     2   --> E    L_3       
     e( 10 - 10) =     23.63691  eV     1   --> A_1  L_1       
     e( 11 - 12) =     29.75875  eV     2   --> E    L_3       

 **************************************************************************

 **************************************************************************

                    xk=(   0.43137,  -0.43137,   0.43137  )

     Band symmetry, C_3v (3m)   point group:

     e(  1 -  1) =    -70.48558  eV     1   --> A_1  L_1       
     e(  2 -  2) =    -35.86247  eV     1   --> A_1  L_1       
     e(  3 -  4) =    -35.73824  eV     2   --> E    L_3       
     e(  5 -  6) =     14.52170  eV     2   --> E    L_3       
     e(  7 -  7) =     15.11482  eV     1   --> A_1  L_1       
     e(  8 -  9) =     16.50397  eV     2   --> E    L_3       
     e( 10 - 10) =     24.53418  eV     1   --> A_1  L_1       
     e( 11 - 12) =     29.29026  eV     2   --> E    L_3       

 **************************************************************************

 **************************************************************************

                    xk=(   0.45098,  -0.45098,   0.45098  )

     Band symmetry, C_3v (3m)   point group:

     e(  1 -  1) =    -70.45267  eV     1   --> A_1  L_1       
     e(  2 -  2) =    -35.83873  eV     1   --> A_1  L_1       
     e(  3 -  4) =    -35.67398  eV     2   --> E    L_3       
     e(  5 -  6) =     14.59156  eV     2   --> E    L_3       
     e(  7 -  7) =     15.06035  eV     1   --> A_1  L_1       
     e(  8 -  9) =     16.51389  eV     2   --> E    L_3       
     e( 10 - 10) =     25.46888  eV     1   --> A_1  L_1       
     e( 11 - 12) =     28.88872  eV     2   --> E    L_3       

 **************************************************************************

 **************************************************************************

                    xk=(   0.47059,  -0.47059,   0.47059  )

     Band symmetry, C_3v (3m)   point group:

     e(  1 -  1) =    -70.45152  eV     1   --> A_1  L_1       
     e(  2 -  2) =    -35.81450  eV     1   --> A_1  L_1       
     e(  3 -  4) =    -35.68471  eV     2   --> E    L_3       
     e(  5 -  6) =     14.65603  eV     2   --> E    L_3       
     e(  7 -  7) =     14.96035  eV     1   --> A_1  L_1       
     e(  8 -  9) =     16.51501  eV     2   --> E    L_3       
     e( 10 - 10) =     26.41397  eV     1   --> A_1  L_1       
     e( 11 - 12) =     28.47252  eV     2   --> E    L_3       

 **************************************************************************

 **************************************************************************

                    xk=(   0.49020,  -0.49020,   0.49020  )

     Band symmetry, C_3v (3m)   point group:

     e(  1 -  1) =    -70.41564  eV     1   --> A_1  L_1       
     e(  2 -  2) =    -35.68255  eV     1   --> A_1  L_1       
     e(  3 -  4) =    -35.66454  eV     2   --> E    L_3       
     e(  5 -  6) =     14.74208  eV     2   --> E    L_3       
     e(  7 -  7) =     14.84384  eV     1   --> A_1  L_1       
     e(  8 -  9) =     16.51939  eV     2   --> E    L_3       
     e( 10 - 10) =     27.51100  eV     1   --> A_1  L_1       
     e( 11 - 12) =     28.08656  eV     2   --> E    L_3       

 **************************************************************************

 **************************************************************************

                    xk=(   0.50980,  -0.50980,   0.50980  )

     Band symmetry, C_3v (3m)   point group:

     e(  1 -  1) =    -70.41564  eV     1   --> A_1  L_1       
     e(  2 -  3) =    -35.67667  eV     2   --> E    L_3       
     e(  4 -  4) =    -35.65831  eV     1   --> A_1  L_1       
     e(  5 -  5) =     14.70690  eV     1   --> A_1  L_1       
     e(  6 -  7) =     14.81055  eV     2   --> E    L_3       
     e(  8 -  9) =     16.51945  eV     2   --> E    L_3       
     e( 10 - 11) =     27.72969  eV     2   --> E    L_3       
     e( 12 - 12) =     28.20799  eV     1   --> A_1  L_1       

 **************************************************************************

 **************************************************************************

                    xk=(   0.52941,  -0.52941,   0.52941  )

     Band symmetry, C_3v (3m)   point group:

     e(  1 -  1) =    -70.44611  eV     1   --> A_1  L_1       
     e(  2 -  2) =    -35.75364  eV     1   --> A_1  L_1       
     e(  3 -  4) =    -35.70631  eV     2   --> E    L_3       
     e(  5 -  5) =     14.52192  eV     1   --> A_1  L_1       
     e(  6 -  7) =     14.87573  eV     2   --> E    L_3       
     e(  8 -  9) =     16.51417  eV     2   --> E    L_3       
     e( 10 - 11) =     27.36923  eV     2   --> E    L_3       
     e( 12 - 12) =     28.38327  eV     1   --> A_1  L_1       

 **************************************************************************

 **************************************************************************

                    xk=(   0.54902,  -0.54902,   0.54902  )

     Band symmetry, C_3v (3m)   point group:

     e(  1 -  1) =    -70.46277  eV     1   --> A_1  L_1       
     e(  2 -  4) =    -35.74964  eV     3   --> A_1  L_1       
     e(  2 -  4) =    -35.74964  eV     3   --> E    L_3       
     e(  5 -  5) =     14.38276  eV     1   --> A_1  L_1       
     e(  6 -  7) =     14.93310  eV     2   --> E    L_3       
     e(  8 -  9) =     16.51731  eV     2   --> E    L_3       
     e( 10 - 11) =     27.01959  eV     2   --> E    L_3       
     e( 12 - 12) =     28.26894  eV     1   --> A_1  L_1       

 **************************************************************************

 **************************************************************************

                    xk=(   0.56863,  -0.56863,   0.56863  )

     Band symmetry, C_3v (3m)   point group:

     e(  1 -  1) =    -70.46336  eV     1   --> A_1  L_1       
     e(  2 -  3) =    -35.76060  eV     2   --> E    L_3       
     e(  4 -  4) =    -35.73501  eV     1   --> A_1  L_1       
     e(  5 -  5) =     14.25763  eV     1   --> A_1  L_1       
     e(  6 -  7) =     14.97726  eV     2   --> E    L_3       
     e(  8 -  9) =     16.52572  eV     2   --> E    L_3       
     e( 10 - 11) =     26.76732  eV     2   --> E    L_3       
     e( 12 - 12) =     28.14829  eV     1   --> A_1  L_1       

 **************************************************************************

 **************************************************************************

                    xk=(   0.58824,  -0.58824,   0.58824  )

     Band symmetry, C_3v (3m)   point group:

     e(  1 -  1) =    -70.46333  eV     1   --> A_1  L_1       
     e(  2 -  3) =    -35.76974  eV     2   --> E    L_3       
     e(  4 -  4) =    -35.72109  eV     1   --> A_1  L_1       
     e(  5 -  5) =     14.15353  eV     1   --> A_1  L_1       
     e(  6 -  7) =     15.00298  eV     2   --> E    L_3       
     e(  8 -  9) =     16.54159  eV     2   --> E    L_3       
     e( 10 - 11) =     26.55659  eV     2   --> E    L_3       
     e( 12 - 12) =     28.03306  eV     1   --> A_1  L_1       

 **************************************************************************

 **************************************************************************

                    xk=(   0.60784,  -0.60784,   0.60784  )

     Band symmetry, C_3v (3m)   point group:

     e(  1 -  1) =    -70.46264  eV     1   --> A_1  L_1       
     e(  2 -  3) =    -35.77694  eV     2   --> E    L_3       
     e(  4 -  4) =    -35.70857  eV     1   --> A_1  L_1       
     e(  5 -  5) =     14.07680  eV     1   --> A_1  L_1       
     e(  6 -  7) =     15.00578  eV     2   --> E    L_3       
     e(  8 -  9) =     16.56674  eV     2   --> E    L_3       
     e( 10 - 11) =     26.38995  eV     2   --> E    L_3       
     e( 12 - 12) =     27.93809  eV     1   --> A_1  L_1       

 **************************************************************************

 **************************************************************************

                    xk=(   0.62745,  -0.62745,   0.62745  )

     Band symmetry, C_3v (3m)   point group:

     e(  1 -  1) =    -70.46122  eV     1   --> A_1  L_1       
     e(  2 -  3) =    -35.78214  eV     2   --> E    L_3       
     e(  4 -  4) =    -35.69806  eV     1   --> A_1  L_1       
     e(  5 -  5) =     14.03267  eV     1   --> A_1  L_1       
     e(  6 -  7) =     14.98259  eV     2   --> E    L_3       
     e(  8 -  9) =     16.60206  eV     2   --> E    L_3       
     e( 10 - 11) =     26.26956  eV     2   --> E    L_3       
     e( 12 - 12) =     27.86728  eV     1   --> A_1  L_1       

 **************************************************************************

 **************************************************************************

                    xk=(   0.64706,  -0.64706,   0.64706  )

     Band symmetry, C_3v (3m)   point group:

     e(  1 -  1) =    -70.45905  eV     1   --> A_1  L_1       
     e(  2 -  3) =    -35.78532  eV     2   --> E    L_3       
     e(  4 -  4) =    -35.69000  eV     1   --> A_1  L_1       
     e(  5 -  5) =     14.02518  eV     1   --> A_1  L_1       
     e(  6 -  7) =     14.93222  eV     2   --> E    L_3       
     e(  8 -  9) =     16.64730  eV     2   --> E    L_3       
     e( 10 - 11) =     26.19695  eV     2   --> E    L_3       
     e( 12 - 12) =     27.82130  eV     1   --> A_1  L_1       

 **************************************************************************

 **************************************************************************

                    xk=(   0.66667,  -0.66667,   0.66667  )

     Band symmetry, C_3v (3m)   point group:

     e(  1 -  1) =    -70.45608  eV     1   --> A_1  L_1       
     e(  2 -  3) =    -35.78645  eV     2   --> E    L_3       
     e(  4 -  4) =    -35.68469  eV     1   --> A_1  L_1       
     e(  5 -  5) =     14.05719  eV     1   --> A_1  L_1       
     e(  6 -  7) =     14.85533  eV     2   --> E    L_3       
     e(  8 -  9) =     16.70121  eV     2   --> E    L_3       
     e( 10 - 11) =     26.17289  eV     2   --> E    L_3       
     e( 12 - 12) =     27.79990  eV     1   --> A_1  L_1       

 **************************************************************************

 **************************************************************************

                    xk=(   0.68627,  -0.68627,   0.68627  )

     Band symmetry, C_3v (3m)   point group:

     e(  1 -  1) =    -70.45232  eV     1   --> A_1  L_1       
     e(  2 -  3) =    -35.78555  eV     2   --> E    L_3       
     e(  4 -  4) =    -35.68227  eV     1   --> A_1  L_1       
     e(  5 -  5) =     14.13028  eV     1   --> A_1  L_1       
     e(  6 -  7) =     14.75407  eV     2   --> E    L_3       
     e(  8 -  9) =     16.76195  eV     2   --> E    L_3       
     e( 10 - 11) =     26.19733  eV     2   --> E    L_3       
     e( 12 - 12) =     27.80270  eV     1   --> A_1  L_1       

 **************************************************************************

 **************************************************************************

                    xk=(   0.70588,  -0.70588,   0.70588  )

     Band symmetry, C_3v (3m)   point group:

     e(  1 -  1) =    -70.44777  eV     1   --> A_1  L_1       
     e(  2 -  3) =    -35.78265  eV     2   --> E    L_3       
     e(  4 -  4) =    -35.68273  eV     1   --> A_1  L_1       
     e(  5 -  5) =     14.24482  eV     1   --> A_1  L_1       
     e(  6 -  7) =     14.63162  eV     2   --> E    L_3       
     e(  8 -  9) =     16.82760  eV     2   --> E    L_3       
     e( 10 - 11) =     26.26938  eV     2   --> E    L_3       
     e( 12 - 12) =     27.82951  eV     1   --> A_1  L_1       

 **************************************************************************

 **************************************************************************

                    xk=(   0.72549,  -0.72549,   0.72549  )

     Band symmetry, C_3v (3m)   point group:

     e(  1 -  1) =    -70.44245  eV     1   --> A_1  L_1       
     e(  2 -  3) =    -35.77778  eV     2   --> E    L_3       
     e(  4 -  4) =    -35.68586  eV     1   --> A_1  L_1       
     e(  5 -  5) =     14.39990  eV     1   --> A_1  L_1       
     e(  6 -  7) =     14.49179  eV     2   --> E    L_3       
     e(  8 -  9) =     16.89638  eV     2   --> E    L_3       
     e( 10 - 11) =     26.38746  eV     2   --> E    L_3       
     e( 12 - 12) =     27.88049  eV     1   --> A_1  L_1       

 **************************************************************************

 **************************************************************************

                    xk=(   0.74510,  -0.74510,   0.74510  )

     Band symmetry, C_3v (3m)   point group:

     e(  1 -  1) =    -70.40079  eV     1   --> A_1  L_1       
     e(  2 -  3) =    -35.73278  eV     2   --> E    L_3       
     e(  4 -  4) =    -35.62833  eV     1   --> A_1  L_1       
     e(  5 -  6) =     14.34081  eV     2   --> E    L_3       
     e(  7 -  7) =     14.59911  eV     1   --> A_1  L_1       
     e(  8 -  9) =     16.98826  eV     2   --> E    L_3       
     e( 10 - 11) =     26.59227  eV     2   --> E    L_3       
     e( 12 - 12) =     28.05277  eV     1   --> A_1  L_1       

 **************************************************************************

 **************************************************************************

                    xk=(   0.76471,  -0.76471,   0.76471  )

     Band symmetry, C_3v (3m)   point group:

     e(  1 -  1) =    -70.44874  eV     1   --> A_1  L_1       
     e(  2 -  3) =    -35.83021  eV     2   --> E    L_3       
     e(  4 -  4) =    -35.71389  eV     1   --> A_1  L_1       
     e(  5 -  6) =     14.15445  eV     2   --> E    L_3       
     e(  7 -  7) =     14.82833  eV     1   --> A_1  L_1       
     e(  8 -  9) =     17.04941  eV     2   --> E    L_3       
     e( 10 - 11) =     26.71923  eV     2   --> E    L_3       
     e( 12 - 12) =     28.11023  eV     1   --> A_1  L_1       

 **************************************************************************

 **************************************************************************

                    xk=(   0.78431,  -0.78431,   0.78431  )

     Band symmetry, C_3v (3m)   point group:

     e(  1 -  1) =    -70.44499  eV     1   --> A_1  L_1       
     e(  2 -  3) =    -35.83250  eV     2   --> E    L_3       
     e(  4 -  4) =    -35.72434  eV     1   --> A_1  L_1       
     e(  5 -  6) =     13.98696  eV     2   --> E    L_3       
     e(  7 -  7) =     15.08796  eV     1   --> A_1  L_1       
     e(  8 -  9) =     17.11589  eV     2   --> E    L_3       
     e( 10 - 11) =     26.96079  eV     2   --> E    L_3       
     e( 12 - 12) =     28.25336  eV     1   --> A_1  L_1       

 **************************************************************************

 **************************************************************************

                    xk=(   0.80392,  -0.80392,   0.80392  )

     Band symmetry, C_3v (3m)   point group:

     e(  1 -  1) =    -70.44068  eV     1   --> A_1  L_1       
     e(  2 -  3) =    -35.83314  eV     2   --> E    L_3       
     e(  4 -  4) =    -35.73505  eV     1   --> A_1  L_1       
     e(  5 -  6) =     13.81938  eV     2   --> E    L_3       
     e(  7 -  7) =     15.37092  eV     1   --> A_1  L_1       
     e(  8 -  9) =     17.18063  eV     2   --> E    L_3       
     e( 10 - 11) =     27.23808  eV     2   --> E    L_3       
     e( 12 - 12) =     28.42480  eV     1   --> A_1  L_1       

 **************************************************************************

 **************************************************************************

                    xk=(   0.82353,  -0.82353,   0.82353  )

     Band symmetry, C_3v (3m)   point group:

     e(  1 -  1) =    -70.40264  eV     1   --> A_1  L_1       
     e(  2 -  3) =    -35.81465  eV     2   --> E    L_3       
     e(  4 -  4) =    -35.63012  eV     1   --> A_1  L_1       
     e(  5 -  6) =     13.65618  eV     2   --> E    L_3       
     e(  7 -  7) =     15.70629  eV     1   --> A_1  L_1       
     e(  8 -  9) =     17.24894  eV     2   --> E    L_3       
     e( 10 - 11) =     27.58800  eV     2   --> E    L_3       
     e( 12 - 12) =     28.72263  eV     1   --> A_1  L_1       

 **************************************************************************

 **************************************************************************

                    xk=(   0.84314,  -0.84314,   0.84314  )

     Band symmetry, C_3v (3m)   point group:

     e(  1 -  1) =    -70.39921  eV     1   --> A_1  L_1       
     e(  2 -  3) =    -35.81480  eV     2   --> E    L_3       
     e(  4 -  4) =    -35.65214  eV     1   --> A_1  L_1       
     e(  5 -  6) =     13.49962  eV     2   --> E    L_3       
     e(  7 -  7) =     16.01088  eV     1   --> A_1  L_1       
     e(  8 -  9) =     17.30638  eV     2   --> E    L_3       
     e( 10 - 11) =     27.92729  eV     2   --> E    L_3       
     e( 12 - 12) =     28.96834  eV     1   --> A_1  L_1       

 **************************************************************************

 **************************************************************************

                    xk=(   0.86275,  -0.86275,   0.86275  )

     Band symmetry, C_3v (3m)   point group:

     e(  1 -  1) =    -70.42799  eV     1   --> A_1  L_1       
     e(  2 -  3) =    -35.85067  eV     2   --> E    L_3       
     e(  4 -  4) =    -35.75656  eV     1   --> A_1  L_1       
     e(  5 -  6) =     13.34240  eV     2   --> E    L_3       
     e(  7 -  7) =     16.31223  eV     1   --> A_1  L_1       
     e(  8 -  9) =     17.35843  eV     2   --> E    L_3       
     e( 10 - 11) =     28.28936  eV     2   --> E    L_3       
     e( 12 - 12) =     29.24167  eV     1   --> A_1  L_1       

 **************************************************************************

 **************************************************************************

                    xk=(   0.88235,  -0.88235,   0.88235  )

     Band symmetry, C_3v (3m)   point group:

     e(  1 -  1) =    -70.42530  eV     1   --> A_1  L_1       
     e(  2 -  3) =    -35.85254  eV     2   --> E    L_3       
     e(  4 -  4) =    -35.77602  eV     1   --> A_1  L_1       
     e(  5 -  6) =     13.20950  eV     2   --> E    L_3       
     e(  7 -  7) =     16.60214  eV     1   --> A_1  L_1       
     e(  8 -  9) =     17.40704  eV     2   --> E    L_3       
     e( 10 - 11) =     28.68362  eV     2   --> E    L_3       
     e( 12 - 12) =     29.54134  eV     1   --> A_1  L_1       

 **************************************************************************

 **************************************************************************

                    xk=(   0.90196,  -0.90196,   0.90196  )

     Band symmetry, C_3v (3m)   point group:

     e(  1 -  1) =    -70.43887  eV     1   --> A_1  L_1       
     e(  2 -  2) =    -35.88107  eV     1   --> A_1  L_1       
     e(  3 -  4) =    -35.85486  eV     2   --> E    L_3       
     e(  5 -  6) =     13.09231  eV     2   --> E    L_3       
     e(  7 -  7) =     16.86198  eV     1   --> A_1  L_1       
     e(  8 -  9) =     17.44986  eV     2   --> E    L_3       
     e( 10 - 11) =     29.10171  eV     2   --> E    L_3       
     e( 12 - 12) =     29.81102  eV     1   --> A_1  L_1       

 **************************************************************************

 **************************************************************************

                    xk=(   0.92157,  -0.92157,   0.92157  )

     Band symmetry, C_3v (3m)   point group:

     e(  1 -  1) =    -70.43703  eV     1   --> A_1  L_1       
     e(  2 -  2) =    -35.90037  eV     1   --> A_1  L_1       
     e(  3 -  4) =    -35.85511  eV     2   --> E    L_3       
     e(  5 -  6) =     12.99379  eV     2   --> E    L_3       
     e(  7 -  7) =     17.09540  eV     1   --> A_1  L_1       
     e(  8 -  9) =     17.48645  eV     2   --> E    L_3       
     e( 10 - 11) =     29.54048  eV     2   --> E    L_3       
     e( 12 - 12) =     30.11921  eV     1   --> A_1  L_1       

 **************************************************************************

 **************************************************************************

                    xk=(   0.94118,  -0.94118,   0.94118  )

     Band symmetry, C_3v (3m)   point group:

     e(  1 -  1) =    -70.43520  eV     1   --> A_1  L_1       
     e(  2 -  2) =    -35.91408  eV     1   --> A_1  L_1       
     e(  3 -  4) =    -35.85460  eV     2   --> E    L_3       
     e(  5 -  6) =     12.91533  eV     2   --> E    L_3       
     e(  7 -  7) =     17.28774  eV     1   --> A_1  L_1       
     e(  8 -  9) =     17.51598  eV     2   --> E    L_3       
     e( 10 - 11) =     29.99341  eV     2   --> E    L_3       
     e( 12 - 12) =     30.41354  eV     1   --> A_1  L_1       

 **************************************************************************

 **************************************************************************

                    xk=(   0.96078,  -0.96078,   0.96078  )

     Band symmetry, C_3v (3m)   point group:

     e(  1 -  1) =    -70.41746  eV     1   --> A_1  L_1       
     e(  2 -  2) =    -35.88404  eV     1   --> A_1  L_1       
     e(  3 -  4) =    -35.83145  eV     2   --> E    L_3       
     e(  5 -  6) =     12.85845  eV     2   --> E    L_3       
     e(  7 -  7) =     17.43311  eV     1   --> A_1  L_1       
     e(  8 -  9) =     17.54620  eV     2   --> E    L_3       
     e( 10 - 11) =     30.47777  eV     2   --> E    L_3       
     e( 12 - 12) =     30.74532  eV     1   --> A_1  L_1       

 **************************************************************************

 **************************************************************************

                    xk=(   0.98039,  -0.98039,   0.98039  )

     Band symmetry, C_3v (3m)   point group:

     e(  1 -  1) =    -70.40281  eV     1   --> A_1  L_1       
     e(  2 -  3) =    -35.82701  eV     2   --> E    L_3       
     e(  4 -  4) =    -35.82377  eV     1   --> A_1  L_1       
     e(  5 -  6) =     12.82421  eV     2   --> E    L_3       
     e(  7 -  7) =     17.53558  eV     1   --> A_1  L_1       
     e(  8 -  9) =     17.56042  eV     2   --> E    L_3       
     e( 10 - 11) =     30.89099  eV     2   --> E    L_3       
     e( 12 - 12) =     31.02303  eV     1   --> A_1  L_1       

 **************************************************************************

 **************************************************************************

                    xk=(   1.00000,  -1.00000,   1.00000  )

     point group O_h (m-3m) 
     there are 10 classes
     the character table:

       E     8C3   3C2   6C4   6C2'  i     8S6   3s_h  6S4   6s_d 
A_1g   1.00  1.00  1.00  1.00  1.00  1.00  1.00  1.00  1.00  1.00
A_2g   1.00  1.00  1.00 -1.00 -1.00  1.00  1.00  1.00 -1.00 -1.00
E_g    2.00 -1.00  2.00  0.00  0.00  2.00 -1.00  2.00  0.00  0.00
T_1g   3.00  0.00 -1.00  1.00 -1.00  3.00  0.00 -1.00  1.00 -1.00
T_2g   3.00  0.00 -1.00 -1.00  1.00  3.00  0.00 -1.00 -1.00  1.00
A_1u   1.00  1.00  1.00  1.00  1.00 -1.00 -1.00 -1.00 -1.00 -1.00
A_2u   1.00  1.00  1.00 -1.00 -1.00 -1.00 -1.00 -1.00  1.00  1.00
E_u    2.00 -1.00  2.00  0.00  0.00 -2.00  1.00 -2.00  0.00  0.00
T_1u   3.00  0.00 -1.00  1.00 -1.00 -3.00  0.00  1.00 -1.00  1.00
T_2u   3.00  0.00 -1.00 -1.00  1.00 -3.00  0.00  1.00  1.00 -1.00

     the symmetry operations in each class and the name of the first element:

     E        1
                                                                 
     8C3     17   19   20   18   24   21   22   23
                                                                 
     3C2      2    4    3
                                                                 
     6C4      7    8   15   16   12   11
                                                                 
     6C2'     5    6   14   13   10    9
                                                                 
     i       25
                                                                 
     8S6     41   43   44   42   48   45   46   47
                                                                 
     3s_h    26   28   27
                                                                 
     6S4     31   32   39   40   36   35
                                                                 
     6s_d    29   30   38   37   34   33
                                                                 

     Band symmetry, O_h (m-3m)  point group:

     e(  1 -  1) =    -70.40280  eV     1   --> A_1g G_1   G_1+
     e(  2 -  4) =    -35.82744  eV     3   --> T_1u G_15  G_4-
     e(  5 -  6) =     12.81262  eV     2   --> E_g  G_12  G_3+
     e(  7 -  9) =     17.56445  eV     3   --> T_2g G_25' G_5+
     e( 10 - 12) =     31.08313  eV     3   --> T_1u G_15  G_4-

 **************************************************************************

 **************************************************************************

                    xk=(   0.98039,  -0.99020,   0.99020  )

     point group C_s (m)    
     there are  2 classes
     the character table:

       E     s    
A'     1.00  1.00
A''    1.00 -1.00

     the symmetry operations in each class and the name of the first element:

     E        1
                                                                 
     s        2
                                                                 

     Band symmetry, C_s (m)     point group:

     e(  1 -  1) =    -70.40281  eV     1   --> A'             
     e(  2 -  2) =    -35.82738  eV     1   --> A'             
     e(  3 -  3) =    -35.82689  eV     1   --> A''            
     e(  4 -  4) =    -35.82579  eV     1   --> A'             
     e(  5 -  5) =     12.81795  eV     1   --> A''            
     e(  6 -  6) =     12.81889  eV     1   --> A'             
     e(  7 -  7) =     17.55138  eV     1   --> A'             
     e(  8 -  8) =     17.55964  eV     1   --> A''            
     e(  9 -  9) =     17.56385  eV     1   --> A'             
     e( 10 - 10) =     30.90898  eV     1   --> A'             
     e( 11 - 11) =     31.03867  eV     1   --> A''            
     e( 12 - 12) =     31.07175  eV     1   --> A'             

 **************************************************************************

 **************************************************************************

                    xk=(   0.96078,  -0.98039,   0.98039  )

     Band symmetry, C_s (m)     point group:

     e(  1 -  1) =    -70.40283  eV     1   --> A'             
     e(  2 -  2) =    -35.82721  eV     1   --> A'             
     e(  3 -  3) =    -35.82524  eV     1   --> A''            
     e(  4 -  4) =    -35.82083  eV     1   --> A'             
     e(  5 -  5) =     12.83388  eV     1   --> A''            
     e(  6 -  6) =     12.83765  eV     1   --> A'             
     e(  7 -  7) =     17.51241  eV     1   --> A'             
     e(  8 -  8) =     17.54529  eV     1   --> A''            
     e(  9 -  9) =     17.56203  eV     1   --> A'             
     e( 10 - 10) =     30.51748  eV     1   --> A'             
     e( 11 - 11) =     30.92382  eV     1   --> A''            
     e( 12 - 12) =     31.03864  eV     1   --> A'             

 **************************************************************************

 **************************************************************************

                    xk=(   0.94118,  -0.97059,   0.97059  )

     Band symmetry, C_s (m)     point group:

     e(  1 -  1) =    -70.42812  eV     1   --> A'             
     e(  2 -  2) =    -35.91184  eV     1   --> A'             
     e(  3 -  3) =    -35.85138  eV     1   --> A''            
     e(  4 -  4) =    -35.83746  eV     1   --> A'             
     e(  5 -  5) =     12.85961  eV     1   --> A''            
     e(  6 -  6) =     12.86840  eV     1   --> A'             
     e(  7 -  7) =     17.43036  eV     1   --> A'             
     e(  8 -  8) =     17.51034  eV     1   --> A''            
     e(  9 -  9) =     17.55383  eV     1   --> A'             
     e( 10 - 10) =     29.97180  eV     1   --> A'             
     e( 11 - 11) =     30.72830  eV     1   --> A''            
     e( 12 - 12) =     30.87790  eV     1   --> A'             

 **************************************************************************

 **************************************************************************

                    xk=(   0.92157,  -0.96078,   0.96078  )

     Band symmetry, C_s (m)     point group:

     e(  1 -  1) =    -70.42918  eV     1   --> A'             
     e(  2 -  2) =    -35.90748  eV     1   --> A'             
     e(  3 -  3) =    -35.85027  eV     1   --> A''            
     e(  4 -  4) =    -35.83771  eV     1   --> A'             
     e(  5 -  5) =     12.89617  eV     1   --> A''            
     e(  6 -  6) =     12.91152  eV     1   --> A'             
     e(  7 -  7) =     17.33923  eV     1   --> A'             
     e(  8 -  8) =     17.47611  eV     1   --> A''            
     e(  9 -  9) =     17.54871  eV     1   --> A'             
     e( 10 - 10) =     29.46436  eV     1   --> A'             
     e( 11 - 11) =     30.56250  eV     1   --> A''            
     e( 12 - 12) =     30.80964  eV     1   --> A'             

 **************************************************************************

 **************************************************************************

                    xk=(   0.90196,  -0.95098,   0.95098  )

     Band symmetry, C_s (m)     point group:

     e(  1 -  1) =    -70.43028  eV     1   --> A'             
     e(  2 -  2) =    -35.90043  eV     1   --> A'             
     e(  3 -  3) =    -35.84824  eV     1   --> A''            
     e(  4 -  4) =    -35.83771  eV     1   --> A'             
     e(  5 -  5) =     12.94256  eV     1   --> A''            
     e(  6 -  6) =     12.96626  eV     1   --> A'             
     e(  7 -  7) =     17.22574  eV     1   --> A'             
     e(  8 -  8) =     17.43346  eV     1   --> A''            
     e(  9 -  9) =     17.54221  eV     1   --> A'             
     e( 10 - 10) =     28.94406  eV     1   --> A'             
     e( 11 - 11) =     30.39656  eV     1   --> A''            
     e( 12 - 12) =     30.73413  eV     1   --> A'             

 **************************************************************************

 **************************************************************************

                    xk=(   0.88235,  -0.94118,   0.94118  )

     Band symmetry, C_s (m)     point group:

     e(  1 -  1) =    -70.44779  eV     1   --> A'             
     e(  2 -  2) =    -35.90112  eV     1   --> A'             
     e(  3 -  3) =    -35.88542  eV     1   --> A'             
     e(  4 -  4) =    -35.86898  eV     1   --> A''            
     e(  5 -  5) =     12.99690  eV     1   --> A''            
     e(  6 -  6) =     13.03186  eV     1   --> A'             
     e(  7 -  7) =     17.08952  eV     1   --> A'             
     e(  8 -  8) =     17.37386  eV     1   --> A''            
     e(  9 -  9) =     17.52867  eV     1   --> A'             
     e( 10 - 10) =     28.36591  eV     1   --> A'             
     e( 11 - 11) =     30.23043  eV     1   --> A''            
     e( 12 - 12) =     30.60579  eV     1   --> A'             

 **************************************************************************

 **************************************************************************

                    xk=(   0.86275,  -0.93137,   0.93137  )

     Band symmetry, C_s (m)     point group:

     e(  1 -  1) =    -70.44921  eV     1   --> A'             
     e(  2 -  2) =    -35.89060  eV     1   --> A'             
     e(  3 -  3) =    -35.88470  eV     1   --> A'             
     e(  4 -  4) =    -35.86605  eV     1   --> A''            
     e(  5 -  5) =     13.06109  eV     1   --> A''            
     e(  6 -  6) =     13.10801  eV     1   --> A'             
     e(  7 -  7) =     16.93819  eV     1   --> A'             
     e(  8 -  8) =     17.31627  eV     1   --> A''            
     e(  9 -  9) =     17.51886  eV     1   --> A'             
     e( 10 - 10) =     27.84465  eV     1   --> A'             
     e( 11 - 11) =     30.08235  eV     1   --> A''            
     e( 12 - 12) =     30.52509  eV     1   --> A'             

 **************************************************************************

 **************************************************************************

                    xk=(   0.84314,  -0.92157,   0.92157  )

     Band symmetry, C_s (m)     point group:

     e(  1 -  1) =    -70.44491  eV     1   --> A'             
     e(  2 -  2) =    -35.88839  eV     1   --> A'             
     e(  3 -  3) =    -35.86220  eV     1   --> A''            
     e(  4 -  4) =    -35.84259  eV     1   --> A'             
     e(  5 -  5) =     13.13330  eV     1   --> A''            
     e(  6 -  6) =     13.19430  eV     1   --> A'             
     e(  7 -  7) =     16.77448  eV     1   --> A'             
     e(  8 -  8) =     17.25290  eV     1   --> A''            
     e(  9 -  9) =     17.50754  eV     1   --> A'             
     e( 10 - 10) =     27.33237  eV     1   --> A'             
     e( 11 - 11) =     29.94604  eV     1   --> A''            
     e( 12 - 12) =     30.45978  eV     1   --> A'             

 **************************************************************************

 **************************************************************************

                    xk=(   0.82353,  -0.91176,   0.91176  )

     Band symmetry, C_s (m)     point group:

     e(  1 -  1) =    -70.42519  eV     1   --> A'             
     e(  2 -  2) =    -35.87075  eV     1   --> A'             
     e(  3 -  3) =    -35.85458  eV     1   --> A''            
     e(  4 -  4) =    -35.74369  eV     1   --> A'             
     e(  5 -  5) =     13.21312  eV     1   --> A''            
     e(  6 -  6) =     13.29619  eV     1   --> A'             
     e(  7 -  7) =     16.60027  eV     1   --> A'             
     e(  8 -  8) =     17.18549  eV     1   --> A''            
     e(  9 -  9) =     17.49475  eV     1   --> A'             
     e( 10 - 10) =     26.83059  eV     1   --> A'             
     e( 11 - 11) =     29.82468  eV     1   --> A''            
     e( 12 - 12) =     30.40604  eV     1   --> A'             

 **************************************************************************

 **************************************************************************

                    xk=(   0.80392,  -0.90196,   0.90196  )

     Band symmetry, C_s (m)     point group:

     e(  1 -  1) =    -70.42762  eV     1   --> A'             
     e(  2 -  2) =    -35.87290  eV     1   --> A'             
     e(  3 -  3) =    -35.84913  eV     1   --> A''            
     e(  4 -  4) =    -35.73280  eV     1   --> A'             
     e(  5 -  5) =     13.29881  eV     1   --> A''            
     e(  6 -  6) =     13.39758  eV     1   --> A'             
     e(  7 -  7) =     16.41304  eV     1   --> A'             
     e(  8 -  8) =     17.11372  eV     1   --> A''            
     e(  9 -  9) =     17.47988  eV     1   --> A'             
     e( 10 - 10) =     26.33581  eV     1   --> A'             
     e( 11 - 11) =     29.71493  eV     1   --> A''            
     e( 12 - 12) =     30.33123  eV     1   --> A'             

 **************************************************************************

 **************************************************************************

                    xk=(   0.78431,  -0.89216,   0.89216  )

     Band symmetry, C_s (m)     point group:

     e(  1 -  1) =    -70.42991  eV     1   --> A'             
     e(  2 -  2) =    -35.87462  eV     1   --> A'             
     e(  3 -  3) =    -35.84270  eV     1   --> A''            
     e(  4 -  4) =    -35.71963  eV     1   --> A'             
     e(  5 -  5) =     13.38976  eV     1   --> A''            
     e(  6 -  6) =     13.50494  eV     1   --> A'             
     e(  7 -  7) =     16.22100  eV     1   --> A'             
     e(  8 -  8) =     17.03960  eV     1   --> A''            
     e(  9 -  9) =     17.46314  eV     1   --> A'             
     e( 10 - 10) =     25.85464  eV     1   --> A'             
     e( 11 - 11) =     29.61934  eV     1   --> A''            
     e( 12 - 12) =     30.26573  eV     1   --> A'             

 **************************************************************************

 **************************************************************************

                    xk=(   0.76471,  -0.88235,   0.88235  )

     Band symmetry, C_s (m)     point group:

     e(  1 -  1) =    -70.43304  eV     1   --> A'             
     e(  2 -  2) =    -35.85218  eV     1   --> A'             
     e(  3 -  3) =    -35.83556  eV     1   --> A''            
     e(  4 -  4) =    -35.73293  eV     1   --> A'             
     e(  5 -  5) =     13.48481  eV     1   --> A''            
     e(  6 -  6) =     13.62615  eV     1   --> A'             
     e(  7 -  7) =     16.01491  eV     1   --> A'             
     e(  8 -  8) =     16.96360  eV     1   --> A''            
     e(  9 -  9) =     17.44105  eV     1   --> A'             
     e( 10 - 10) =     25.33124  eV     1   --> A'             
     e( 11 - 11) =     29.53986  eV     1   --> A''            
     e( 12 - 12) =     30.21873  eV     1   --> A'             

 **************************************************************************

 **************************************************************************

                    xk=(   0.74510,  -0.87255,   0.87255  )

     Band symmetry, C_s (m)     point group:

     e(  1 -  1) =    -70.43832  eV     1   --> A'             
     e(  2 -  2) =    -35.88751  eV     1   --> A'             
     e(  3 -  3) =    -35.83986  eV     1   --> A''            
     e(  4 -  4) =    -35.68167  eV     1   --> A'             
     e(  5 -  5) =     13.58477  eV     1   --> A''            
     e(  6 -  6) =     13.73764  eV     1   --> A'             
     e(  7 -  7) =     15.82190  eV     1   --> A'             
     e(  8 -  8) =     16.88584  eV     1   --> A''            
     e(  9 -  9) =     17.41199  eV     1   --> A'             
     e( 10 - 10) =     24.80399  eV     1   --> A'             
     e( 11 - 11) =     29.48087  eV     1   --> A''            
     e( 12 - 12) =     30.16900  eV     1   --> A'             

 **************************************************************************

 **************************************************************************

                    xk=(   0.72549,  -0.86275,   0.86275  )

     Band symmetry, C_s (m)     point group:

     e(  1 -  1) =    -70.44146  eV     1   --> A'             
     e(  2 -  2) =    -35.89144  eV     1   --> A'             
     e(  3 -  3) =    -35.83499  eV     1   --> A''            
     e(  4 -  4) =    -35.66965  eV     1   --> A'             
     e(  5 -  5) =     13.68331  eV     1   --> A''            
     e(  6 -  6) =     13.84887  eV     1   --> A'             
     e(  7 -  7) =     15.63786  eV     1   --> A'             
     e(  8 -  8) =     16.81177  eV     1   --> A''            
     e(  9 -  9) =     17.38780  eV     1   --> A'             
     e( 10 - 10) =     24.37069  eV     1   --> A'             
     e( 11 - 11) =     29.42912  eV     1   --> A''            
     e( 12 - 12) =     30.14093  eV     1   --> A'             

 **************************************************************************

 **************************************************************************

                    xk=(   0.70588,  -0.85294,   0.85294  )

     Band symmetry, C_s (m)     point group:

     e(  1 -  1) =    -70.47045  eV     1   --> A'             
     e(  2 -  2) =    -35.91456  eV     1   --> A'             
     e(  3 -  3) =    -35.85785  eV     1   --> A''            
     e(  4 -  4) =    -35.72252  eV     1   --> A'             
     e(  5 -  5) =     13.78080  eV     1   --> A''            
     e(  6 -  6) =     13.95061  eV     1   --> A'             
     e(  7 -  7) =     15.45503  eV     1   --> A'             
     e(  8 -  8) =     16.72539  eV     1   --> A''            
     e(  9 -  9) =     17.35456  eV     1   --> A'             
     e( 10 - 10) =     23.87788  eV     1   --> A'             
     e( 11 - 11) =     29.36562  eV     1   --> A''            
     e( 12 - 12) =     30.09535  eV     1   --> A'             

 **************************************************************************

 **************************************************************************

                    xk=(   0.68627,  -0.84314,   0.84314  )

     Band symmetry, C_s (m)     point group:

     e(  1 -  1) =    -70.45585  eV     1   --> A'             
     e(  2 -  2) =    -35.90094  eV     1   --> A'             
     e(  3 -  3) =    -35.80446  eV     1   --> A''            
     e(  4 -  4) =    -35.67455  eV     1   --> A'             
     e(  5 -  5) =     13.88401  eV     1   --> A''            
     e(  6 -  6) =     14.04865  eV     1   --> A'             
     e(  7 -  7) =     15.30448  eV     1   --> A'             
     e(  8 -  8) =     16.65806  eV     1   --> A''            
     e(  9 -  9) =     17.32670  eV     1   --> A'             
     e( 10 - 10) =     23.49127  eV     1   --> A'             
     e( 11 - 11) =     29.37749  eV     1   --> A''            
     e( 12 - 12) =     30.10930  eV     1   --> A'             

 **************************************************************************

 **************************************************************************

                    xk=(   0.66667,  -0.83333,   0.83333  )

     Band symmetry, C_s (m)     point group:

     e(  1 -  1) =    -70.47289  eV     1   --> A'             
     e(  2 -  2) =    -35.91878  eV     1   --> A'             
     e(  3 -  3) =    -35.80752  eV     1   --> A''            
     e(  4 -  4) =    -35.70821  eV     1   --> A'             
     e(  5 -  5) =     13.97679  eV     1   --> A''            
     e(  6 -  6) =     14.11729  eV     1   --> A'             
     e(  7 -  7) =     15.17601  eV     1   --> A'             
     e(  8 -  8) =     16.59264  eV     1   --> A''            
     e(  9 -  9) =     17.28992  eV     1   --> A'             
     e( 10 - 10) =     23.11645  eV     1   --> A'             
     e( 11 - 11) =     29.35752  eV     1   --> A''            
     e( 12 - 12) =     30.08292  eV     1   --> A'             

 **************************************************************************

 **************************************************************************

                    xk=(   0.64706,  -0.82353,   0.82353  )

     Band symmetry, C_s (m)     point group:

     e(  1 -  1) =    -70.47672  eV     1   --> A'             
     e(  2 -  2) =    -35.92376  eV     1   --> A'             
     e(  3 -  3) =    -35.80416  eV     1   --> A''            
     e(  4 -  4) =    -35.70117  eV     1   --> A'             
     e(  5 -  5) =     14.06508  eV     1   --> A''            
     e(  6 -  6) =     14.15806  eV     1   --> A'             
     e(  7 -  7) =     15.09707  eV     1   --> A'             
     e(  8 -  8) =     16.53512  eV     1   --> A''            
     e(  9 -  9) =     17.25061  eV     1   --> A'             
     e( 10 - 10) =     22.76221  eV     1   --> A'             
     e( 11 - 11) =     29.36723  eV     1   --> A''            
     e( 12 - 12) =     30.11661  eV     1   --> A'             

 **************************************************************************

 **************************************************************************

                    xk=(   0.62745,  -0.81373,   0.81373  )

     Band symmetry, C_s (m)     point group:

     e(  1 -  1) =    -70.50788  eV     1   --> A'             
     e(  2 -  2) =    -35.96180  eV     1   --> A'             
     e(  3 -  3) =    -35.85051  eV     1   --> A''            
     e(  4 -  4) =    -35.72775  eV     1   --> A'             
     e(  5 -  5) =     14.14348  eV     1   --> A''            
     e(  6 -  6) =     14.15088  eV     1   --> A'             
     e(  7 -  7) =     15.06516  eV     1   --> A'             
     e(  8 -  8) =     16.46670  eV     1   --> A''            
     e(  9 -  9) =     17.19771  eV     1   --> A'             
     e( 10 - 10) =     22.33800  eV     1   --> A'             
     e( 11 - 11) =     29.36205  eV     1   --> A''            
     e( 12 - 12) =     30.14080  eV     1   --> A'             

 **************************************************************************

 **************************************************************************

                    xk=(   0.60784,  -0.80392,   0.80392  )

     Band symmetry, C_s (m)     point group:

     e(  1 -  1) =    -70.51177  eV     1   --> A'             
     e(  2 -  2) =    -35.96665  eV     1   --> A'             
     e(  3 -  3) =    -35.84884  eV     1   --> A''            
     e(  4 -  4) =    -35.72234  eV     1   --> A'             
     e(  5 -  5) =     14.12012  eV     1   --> A'             
     e(  6 -  6) =     14.21679  eV     1   --> A''            
     e(  7 -  7) =     15.07580  eV     1   --> A'             
     e(  8 -  8) =     16.42414  eV     1   --> A''            
     e(  9 -  9) =     17.14801  eV     1   --> A'             
     e( 10 - 10) =     22.03056  eV     1   --> A'             
     e( 11 - 11) =     29.40540  eV     1   --> A''            
     e( 12 - 12) =     30.20749  eV     1   --> A'             

 **************************************************************************

 **************************************************************************

                    xk=(   0.58824,  -0.79412,   0.79412  )

     Band symmetry, C_s (m)     point group:

     e(  1 -  1) =    -70.51533  eV     1   --> A'             
     e(  2 -  2) =    -35.97049  eV     1   --> A'             
     e(  3 -  3) =    -35.84627  eV     1   --> A''            
     e(  4 -  4) =    -35.71752  eV     1   --> A'             
     e(  5 -  5) =     14.06963  eV     1   --> A'             
     e(  6 -  6) =     14.28112  eV     1   --> A''            
     e(  7 -  7) =     15.11487  eV     1   --> A'             
     e(  8 -  8) =     16.39030  eV     1   --> A''            
     e(  9 -  9) =     17.09291  eV     1   --> A'             
     e( 10 - 10) =     21.74726  eV     1   --> A'             
     e( 11 - 11) =     29.46598  eV     1   --> A''            
     e( 12 - 12) =     30.29052  eV     1   --> A'             

 **************************************************************************

 **************************************************************************

                    xk=(   0.56863,  -0.78431,   0.78431  )

     Band symmetry, C_s (m)     point group:

     e(  1 -  1) =    -70.51855  eV     1   --> A'             
     e(  2 -  2) =    -35.97331  eV     1   --> A'             
     e(  3 -  3) =    -35.84281  eV     1   --> A''            
     e(  4 -  4) =    -35.71340  eV     1   --> A'             
     e(  5 -  5) =     14.01343  eV     1   --> A'             
     e(  6 -  6) =     14.33573  eV     1   --> A''            
     e(  7 -  7) =     15.16739  eV     1   --> A'             
     e(  8 -  8) =     16.36535  eV     1   --> A''            
     e(  9 -  9) =     17.03224  eV     1   --> A'             
     e( 10 - 10) =     21.48932  eV     1   --> A'             
     e( 11 - 11) =     29.54401  eV     1   --> A''            
     e( 12 - 12) =     30.39030  eV     1   --> A'             

 **************************************************************************

 **************************************************************************

                    xk=(   0.54902,  -0.77451,   0.77451  )

     Band symmetry, C_s (m)     point group:

     e(  1 -  1) =    -70.50112  eV     1   --> A'             
     e(  2 -  2) =    -35.95689  eV     1   --> A'             
     e(  3 -  3) =    -35.75967  eV     1   --> A''            
     e(  4 -  4) =    -35.69067  eV     1   --> A'             
     e(  5 -  5) =     13.96593  eV     1   --> A'             
     e(  6 -  6) =     14.38868  eV     1   --> A''            
     e(  7 -  7) =     15.22674  eV     1   --> A'             
     e(  8 -  8) =     16.35002  eV     1   --> A''            
     e(  9 -  9) =     16.96745  eV     1   --> A'             
     e( 10 - 10) =     21.26310  eV     1   --> A'             
     e( 11 - 11) =     29.70614  eV     1   --> A''            
     e( 12 - 12) =     30.55505  eV     1   --> A'             

 **************************************************************************

 **************************************************************************

                    xk=(   0.52941,  -0.76471,   0.76471  )

     Band symmetry, C_s (m)     point group:

     e(  1 -  1) =    -70.50404  eV     1   --> A'             
     e(  2 -  2) =    -35.95847  eV     1   --> A'             
     e(  3 -  3) =    -35.75729  eV     1   --> A''            
     e(  4 -  4) =    -35.68788  eV     1   --> A'             
     e(  5 -  5) =     13.92538  eV     1   --> A'             
     e(  6 -  6) =     14.42271  eV     1   --> A''            
     e(  7 -  7) =     15.27532  eV     1   --> A'             
     e(  8 -  8) =     16.34202  eV     1   --> A''            
     e(  9 -  9) =     16.89670  eV     1   --> A'             
     e( 10 - 10) =     21.05884  eV     1   --> A'             
     e( 11 - 11) =     29.81861  eV     1   --> A''            
     e( 12 - 12) =     30.68979  eV     1   --> A'             

 **************************************************************************

 **************************************************************************

                    xk=(   0.50980,  -0.75490,   0.75490  )

     Band symmetry, C_s (m)     point group:

     e(  1 -  1) =    -70.50657  eV     1   --> A'             
     e(  2 -  2) =    -35.95914  eV     1   --> A'             
     e(  3 -  3) =    -35.75411  eV     1   --> A''            
     e(  4 -  4) =    -35.68595  eV     1   --> A'             
     e(  5 -  5) =     13.89984  eV     1   --> A'             
     e(  6 -  6) =     14.44739  eV     1   --> A''            
     e(  7 -  7) =     15.31143  eV     1   --> A'             
     e(  8 -  8) =     16.34101  eV     1   --> A''            
     e(  9 -  9) =     16.82313  eV     1   --> A'             
     e( 10 - 10) =     20.88209  eV     1   --> A'             
     e( 11 - 11) =     29.94879  eV     1   --> A''            
     e( 12 - 12) =     30.84123  eV     1   --> A'             

 **************************************************************************

 **************************************************************************

                    xk=(   0.49020,  -0.74510,   0.74510  )

     Band symmetry, C_s (m)     point group:

     e(  1 -  1) =    -70.50869  eV     1   --> A'             
     e(  2 -  2) =    -35.95897  eV     1   --> A'             
     e(  3 -  3) =    -35.75014  eV     1   --> A''            
     e(  4 -  4) =    -35.68484  eV     1   --> A'             
     e(  5 -  5) =     13.89174  eV     1   --> A'             
     e(  6 -  6) =     14.46368  eV     1   --> A''            
     e(  7 -  7) =     15.33011  eV     1   --> A'             
     e(  8 -  8) =     16.34569  eV     1   --> A''            
     e(  9 -  9) =     16.74936  eV     1   --> A'             
     e( 10 - 10) =     20.73252  eV     1   --> A'             
     e( 11 - 11) =     30.09654  eV     1   --> A''            
     e( 12 - 12) =     31.00852  eV     1   --> A'             

 **************************************************************************

 **************************************************************************

                    xk=(   0.47059,  -0.73529,   0.73529  )

     Band symmetry, C_s (m)     point group:

     e(  1 -  1) =    -70.51039  eV     1   --> A'             
     e(  2 -  2) =    -35.95805  eV     1   --> A'             
     e(  3 -  3) =    -35.74542  eV     1   --> A''            
     e(  4 -  4) =    -35.68446  eV     1   --> A'             
     e(  5 -  5) =     13.90250  eV     1   --> A'             
     e(  6 -  6) =     14.47276  eV     1   --> A''            
     e(  7 -  7) =     15.32726  eV     1   --> A'             
     e(  8 -  8) =     16.35463  eV     1   --> A''            
     e(  9 -  9) =     16.67877  eV     1   --> A'             
     e( 10 - 10) =     20.60909  eV     1   --> A'             
     e( 11 - 11) =     30.26163  eV     1   --> A''            
     e( 12 - 12) =     31.18993  eV     1   --> A'             

 **************************************************************************

 **************************************************************************

                    xk=(   0.45098,  -0.72549,   0.72549  )

     Band symmetry, C_s (m)     point group:

     e(  1 -  1) =    -70.51169  eV     1   --> A'             
     e(  2 -  2) =    -35.95649  eV     1   --> A'             
     e(  3 -  3) =    -35.73996  eV     1   --> A''            
     e(  4 -  4) =    -35.68468  eV     1   --> A'             
     e(  5 -  5) =     13.93289  eV     1   --> A'             
     e(  6 -  6) =     14.47590  eV     1   --> A''            
     e(  7 -  7) =     15.29990  eV     1   --> A'             
     e(  8 -  8) =     16.36640  eV     1   --> A''            
     e(  9 -  9) =     16.61496  eV     1   --> A'             
     e( 10 - 10) =     20.51014  eV     1   --> A'             
     e( 11 - 11) =     30.44368  eV     1   --> A''            
     e( 12 - 12) =     31.38229  eV     1   --> A'             

 **************************************************************************

 **************************************************************************

                    xk=(   0.43137,  -0.71569,   0.71569  )

     Band symmetry, C_s (m)     point group:

     e(  1 -  1) =    -70.49590  eV     1   --> A'             
     e(  2 -  2) =    -35.90651  eV     1   --> A'             
     e(  3 -  3) =    -35.71014  eV     1   --> A''            
     e(  4 -  4) =    -35.67198  eV     1   --> A'             
     e(  5 -  5) =     13.99208  eV     1   --> A'             
     e(  6 -  6) =     14.48068  eV     1   --> A''            
     e(  7 -  7) =     15.25945  eV     1   --> A'             
     e(  8 -  8) =     16.38264  eV     1   --> A''            
     e(  9 -  9) =     16.56153  eV     1   --> A'             
     e( 10 - 10) =     20.45797  eV     1   --> A'             
     e( 11 - 11) =     30.64373  eV     1   --> A''            
     e( 12 - 12) =     31.62404  eV     1   --> A'             

 **************************************************************************

 **************************************************************************

                    xk=(   0.41176,  -0.70588,   0.70588  )

     Band symmetry, C_s (m)     point group:

     e(  1 -  1) =    -70.50846  eV     1   --> A'             
     e(  2 -  2) =    -35.95804  eV     1   --> A'             
     e(  3 -  3) =    -35.70558  eV     1   --> A''            
     e(  4 -  4) =    -35.67504  eV     1   --> A'             
     e(  5 -  5) =     14.06030  eV     1   --> A'             
     e(  6 -  6) =     14.47389  eV     1   --> A''            
     e(  7 -  7) =     15.16849  eV     1   --> A'             
     e(  8 -  8) =     16.39678  eV     1   --> A''            
     e(  9 -  9) =     16.51683  eV     1   --> A'             
     e( 10 - 10) =     20.31082  eV     1   --> A'             
     e( 11 - 11) =     30.85832  eV     1   --> A''            
     e( 12 - 12) =     31.81353  eV     1   --> A'             

 **************************************************************************

 **************************************************************************

                    xk=(   0.39216,  -0.69608,   0.69608  )

     Band symmetry, C_s (m)     point group:

     e(  1 -  1) =    -70.50896  eV     1   --> A'             
     e(  2 -  2) =    -35.95779  eV     1   --> A'             
     e(  3 -  3) =    -35.69895  eV     1   --> A''            
     e(  4 -  4) =    -35.67672  eV     1   --> A'             
     e(  5 -  5) =     14.14833  eV     1   --> A'             
     e(  6 -  6) =     14.46542  eV     1   --> A''            
     e(  7 -  7) =     15.06881  eV     1   --> A'             
     e(  8 -  8) =     16.41047  eV     1   --> A''            
     e(  9 -  9) =     16.48537  eV     1   --> A'             
     e( 10 - 10) =     20.27165  eV     1   --> A'             
     e( 11 - 11) =     31.08832  eV     1   --> A''            
     e( 12 - 12) =     31.97655  eV     1   --> A'             

 **************************************************************************

 **************************************************************************

                    xk=(   0.37255,  -0.68627,   0.68627  )

     Band symmetry, C_s (m)     point group:

     e(  1 -  1) =    -70.49752  eV     1   --> A'             
     e(  2 -  2) =    -35.95606  eV     1   --> A'             
     e(  3 -  3) =    -35.68517  eV     1   --> A''            
     e(  4 -  4) =    -35.63054  eV     1   --> A'             
     e(  5 -  5) =     14.25869  eV     1   --> A'             
     e(  6 -  6) =     14.45522  eV     1   --> A''            
     e(  7 -  7) =     14.95728  eV     1   --> A'             
     e(  8 -  8) =     16.42461  eV     1   --> A''            
     e(  9 -  9) =     16.47020  eV     1   --> A'             
     e( 10 - 10) =     20.24643  eV     1   --> A'             
     e( 11 - 11) =     31.34360  eV     1   --> A''            
     e( 12 - 12) =     32.10337  eV     1   --> A'             

[...]

     e(  1 -  1) =    -70.50887  eV     1   --> A'             
     e(  2 -  2) =    -35.97232  eV     1   --> A'             
     e(  3 -  3) =    -35.76559  eV     1   --> A''            
     e(  4 -  4) =    -35.65617  eV     1   --> A'             
     e(  5 -  5) =     13.13152  eV     1   --> A'             
     e(  6 -  6) =     14.52018  eV     1   --> A''            
     e(  7 -  7) =     15.85849  eV     1   --> A'             
     e(  8 -  8) =     16.34522  eV     1   --> A'             
     e(  9 -  9) =     17.58409  eV     1   --> A''            
     e( 10 - 10) =     19.69868  eV     1   --> A'             
     e( 11 - 11) =     27.49173  eV     1   --> A'             
     e( 12 - 12) =     36.67031  eV     1   --> A'             

 **************************************************************************

 **************************************************************************

                    xk=(   0.00000,  -0.34314,   0.50000  )

     Band symmetry, C_s (m)     point group:

     e(  1 -  1) =    -70.50875  eV     1   --> A'             
     e(  2 -  2) =    -35.97606  eV     1   --> A'             
     e(  3 -  3) =    -35.76494  eV     1   --> A''            
     e(  4 -  4) =    -35.65458  eV     1   --> A'             
     e(  5 -  5) =     13.10673  eV     1   --> A'             
     e(  6 -  6) =     14.49340  eV     1   --> A''            
     e(  7 -  7) =     15.92002  eV     1   --> A'             
     e(  8 -  8) =     16.35553  eV     1   --> A'             
     e(  9 -  9) =     17.60770  eV     1   --> A''            
     e( 10 - 10) =     19.77781  eV     1   --> A'             
     e( 11 - 11) =     27.28670  eV     1   --> A'             
     e( 12 - 12) =     36.69714  eV     1   --> A'             

 **************************************************************************

 **************************************************************************

                    xk=(   0.00000,  -0.35294,   0.50000  )

     Band symmetry, C_s (m)     point group:

     e(  1 -  1) =    -70.50860  eV     1   --> A'             
     e(  2 -  2) =    -35.97947  eV     1   --> A'             
     e(  3 -  3) =    -35.76420  eV     1   --> A''            
     e(  4 -  4) =    -35.65295  eV     1   --> A'             
     e(  5 -  5) =     13.08317  eV     1   --> A'             
     e(  6 -  6) =     14.46808  eV     1   --> A''            
     e(  7 -  7) =     15.97953  eV     1   --> A'             
     e(  8 -  8) =     16.36521  eV     1   --> A'             
     e(  9 -  9) =     17.63000  eV     1   --> A''            
     e( 10 - 10) =     19.85793  eV     1   --> A'             
     e( 11 - 11) =     27.08705  eV     1   --> A'             
     e( 12 - 12) =     36.72363  eV     1   --> A'             

 **************************************************************************

 **************************************************************************

                    xk=(   0.00000,  -0.36275,   0.50000  )

     Band symmetry, C_s (m)     point group:

     e(  1 -  1) =    -70.50842  eV     1   --> A'             
     e(  2 -  2) =    -35.98255  eV     1   --> A'             
     e(  3 -  3) =    -35.76337  eV     1   --> A''            
     e(  4 -  4) =    -35.65130  eV     1   --> A'             
     e(  5 -  5) =     13.06090  eV     1   --> A'             
     e(  6 -  6) =     14.44425  eV     1   --> A''            
     e(  7 -  7) =     16.03672  eV     1   --> A'             
     e(  8 -  8) =     16.37429  eV     1   --> A'             
     e(  9 -  9) =     17.65098  eV     1   --> A''            
     e( 10 - 10) =     19.93879  eV     1   --> A'             
     e( 11 - 11) =     26.89330  eV     1   --> A'             
     e( 12 - 12) =     36.74963  eV     1   --> A'             

 **************************************************************************

 **************************************************************************

                    xk=(   0.00000,  -0.37255,   0.50000  )

     Band symmetry, C_s (m)     point group:

     e(  1 -  1) =    -70.49649  eV     1   --> A'             
     e(  2 -  2) =    -35.93887  eV     1   --> A'             
     e(  3 -  3) =    -35.75907  eV     1   --> A''            
     e(  4 -  4) =    -35.64774  eV     1   --> A'             
     e(  5 -  5) =     13.04047  eV     1   --> A'             
     e(  6 -  6) =     14.42194  eV     1   --> A''            
     e(  7 -  7) =     16.09775  eV     1   --> A'             
     e(  8 -  8) =     16.38338  eV     1   --> A'             
     e(  9 -  9) =     17.67270  eV     1   --> A''            
     e( 10 - 10) =     20.09926  eV     1   --> A'             
     e( 11 - 11) =     26.71446  eV     1   --> A'             
     e( 12 - 12) =     36.77543  eV     1   --> A'             

 **************************************************************************

 **************************************************************************

                    xk=(   0.00000,  -0.38235,   0.50000  )

     Band symmetry, C_s (m)     point group:

     e(  1 -  1) =    -70.49641  eV     1   --> A'             
     e(  2 -  2) =    -35.94254  eV     1   --> A'             
     e(  3 -  3) =    -35.75819  eV     1   --> A''            
     e(  4 -  4) =    -35.64610  eV     1   --> A'             
     e(  5 -  5) =     13.02089  eV     1   --> A'             
     e(  6 -  6) =     14.40117  eV     1   --> A''            
     e(  7 -  7) =     16.14866  eV     1   --> A'             
     e(  8 -  8) =     16.39121  eV     1   --> A'             
     e(  9 -  9) =     17.69087  eV     1   --> A''            
     e( 10 - 10) =     20.17989  eV     1   --> A'             
     e( 11 - 11) =     26.53544  eV     1   --> A'             
     e( 12 - 12) =     36.80004  eV     1   --> A'             

 **************************************************************************

 **************************************************************************

                    xk=(   0.00000,  -0.39216,   0.50000  )

     Band symmetry, C_s (m)     point group:

     e(  1 -  1) =    -70.49628  eV     1   --> A'             
     e(  2 -  2) =    -35.94585  eV     1   --> A'             
     e(  3 -  3) =    -35.75723  eV     1   --> A''            
     e(  4 -  4) =    -35.64445  eV     1   --> A'             
     e(  5 -  5) =     13.00272  eV     1   --> A'             
     e(  6 -  6) =     14.38197  eV     1   --> A''            
     e(  7 -  7) =     16.19642  eV     1   --> A'             
     e(  8 -  8) =     16.39850  eV     1   --> A'             
     e(  9 -  9) =     17.70769  eV     1   --> A''            
     e( 10 - 10) =     20.25973  eV     1   --> A'             
     e( 11 - 11) =     26.36435  eV     1   --> A'             
     e( 12 - 12) =     36.82367  eV     1   --> A'             

 **************************************************************************

 **************************************************************************

                    xk=(   0.00000,  -0.40196,   0.50000  )

     Band symmetry, C_s (m)     point group:

     e(  1 -  1) =    -70.49613  eV     1   --> A'             
     e(  2 -  2) =    -35.94879  eV     1   --> A'             
     e(  3 -  3) =    -35.75618  eV     1   --> A''            
     e(  4 -  4) =    -35.64276  eV     1   --> A'             
     e(  5 -  5) =     12.98601  eV     1   --> A'             
     e(  6 -  6) =     14.36436  eV     1   --> A''            
     e(  7 -  7) =     16.24074  eV     1   --> A'             
     e(  8 -  8) =     16.40529  eV     1   --> A'             
     e(  9 -  9) =     17.72312  eV     1   --> A''            
     e( 10 - 10) =     20.33816  eV     1   --> A'             
     e( 11 - 11) =     26.20200  eV     1   --> A'             
     e( 12 - 12) =     36.84613  eV     1   --> A'             

 **************************************************************************

 **************************************************************************

                    xk=(   0.00000,  -0.41176,   0.50000  )

     Band symmetry, C_s (m)     point group:

     e(  1 -  1) =    -70.50657  eV     1   --> A'             
     e(  2 -  2) =    -35.95262  eV     1   --> A'             
     e(  3 -  3) =    -35.81132  eV     1   --> A''            
     e(  4 -  4) =    -35.64858  eV     1   --> A'             
     e(  5 -  5) =     12.96297  eV     1   --> A'             
     e(  6 -  6) =     14.34631  eV     1   --> A''            
     e(  7 -  7) =     16.28092  eV     1   --> A'             
     e(  8 -  8) =     16.41059  eV     1   --> A'             
     e(  9 -  9) =     17.73584  eV     1   --> A''            
     e( 10 - 10) =     20.40972  eV     1   --> A'             
     e( 11 - 11) =     26.04810  eV     1   --> A'             
     e( 12 - 12) =     36.86702  eV     1   --> A'             

 **************************************************************************

 **************************************************************************

                    xk=(   0.00000,  -0.42157,   0.50000  )

     Band symmetry, C_s (m)     point group:

     e(  1 -  1) =    -70.50639  eV     1   --> A'             
     e(  2 -  2) =    -35.95484  eV     1   --> A'             
     e(  3 -  3) =    -35.81036  eV     1   --> A''            
     e(  4 -  4) =    -35.64676  eV     1   --> A'             
     e(  5 -  5) =     12.94940  eV     1   --> A'             
     e(  6 -  6) =     14.33204  eV     1   --> A''            
     e(  7 -  7) =     16.31739  eV     1   --> A'             
     e(  8 -  8) =     16.41668  eV     1   --> A'             
     e(  9 -  9) =     17.74848  eV     1   --> A''            
     e( 10 - 10) =     20.48322  eV     1   --> A'             
     e( 11 - 11) =     25.90580  eV     1   --> A'             
     e( 12 - 12) =     36.88682  eV     1   --> A'             

 **************************************************************************

 **************************************************************************

                    xk=(   0.00000,  -0.43137,   0.50000  )

     Band symmetry, C_s (m)     point group:

     e(  1 -  1) =    -70.50618  eV     1   --> A'             
     e(  2 -  2) =    -35.95667  eV     1   --> A'             
     e(  3 -  3) =    -35.80931  eV     1   --> A''            
     e(  4 -  4) =    -35.64492  eV     1   --> A'             
     e(  5 -  5) =     12.93736  eV     1   --> A'             
     e(  6 -  6) =     14.31940  eV     1   --> A''            
     e(  7 -  7) =     16.34939  eV     1   --> A'             
     e(  8 -  8) =     16.42272  eV     1   --> A'             
     e(  9 -  9) =     17.75972  eV     1   --> A''            
     e( 10 - 10) =     20.55285  eV     1   --> A'             
     e( 11 - 11) =     25.77514  eV     1   --> A'             
     e( 12 - 12) =     36.90488  eV     1   --> A'             

 **************************************************************************

 **************************************************************************

                    xk=(   0.00000,  -0.44118,   0.50000  )

     Band symmetry, C_s (m)     point group:

     e(  1 -  1) =    -70.50593  eV     1   --> A'             
     e(  2 -  2) =    -35.95810  eV     1   --> A'             
     e(  3 -  3) =    -35.80816  eV     1   --> A''            
     e(  4 -  4) =    -35.64307  eV     1   --> A'             
     e(  5 -  5) =     12.92687  eV     1   --> A'             
     e(  6 -  6) =     14.30841  eV     1   --> A''            
     e(  7 -  7) =     16.37628  eV     1   --> A'             
     e(  8 -  8) =     16.42919  eV     1   --> A'             
     e(  9 -  9) =     17.76955  eV     1   --> A''            
     e( 10 - 10) =     20.61757  eV     1   --> A'             
     e( 11 - 11) =     25.65724  eV     1   --> A'             
     e( 12 - 12) =     36.92104  eV     1   --> A'             

 **************************************************************************

 **************************************************************************

                    xk=(   0.00000,  -0.45098,   0.50000  )

     Band symmetry, C_s (m)     point group:

     e(  1 -  1) =    -70.50565  eV     1   --> A'             
     e(  2 -  2) =    -35.95914  eV     1   --> A'             
     e(  3 -  3) =    -35.80692  eV     1   --> A''            
     e(  4 -  4) =    -35.64120  eV     1   --> A'             
     e(  5 -  5) =     12.91796  eV     1   --> A'             
     e(  6 -  6) =     14.29909  eV     1   --> A''            
     e(  7 -  7) =     16.39700  eV     1   --> A'             
     e(  8 -  8) =     16.43701  eV     1   --> A'             
     e(  9 -  9) =     17.77796  eV     1   --> A''            
     e( 10 - 10) =     20.67629  eV     1   --> A'             
     e( 11 - 11) =     25.55331  eV     1   --> A'             
     e( 12 - 12) =     36.93515  eV     1   --> A'             

 **************************************************************************

 **************************************************************************

                    xk=(   0.00000,  -0.46078,   0.50000  )

     Band symmetry, C_s (m)     point group:

     e(  1 -  1) =    -70.50533  eV     1   --> A'             
     e(  2 -  2) =    -35.95977  eV     1   --> A'             
     e(  3 -  3) =    -35.80558  eV     1   --> A''            
     e(  4 -  4) =    -35.63932  eV     1   --> A'             
     e(  5 -  5) =     12.91064  eV     1   --> A'             
     e(  6 -  6) =     14.29145  eV     1   --> A''            
     e(  7 -  7) =     16.41075  eV     1   --> A'             
     e(  8 -  8) =     16.44689  eV     1   --> A'             
     e(  9 -  9) =     17.78495  eV     1   --> A''            
     e( 10 - 10) =     20.72789  eV     1   --> A'             
     e( 11 - 11) =     25.46456  eV     1   --> A'             
     e( 12 - 12) =     36.94708  eV     1   --> A'             

 **************************************************************************

 **************************************************************************

                    xk=(   0.00000,  -0.47059,   0.50000  )

     Band symmetry, C_s (m)     point group:

     e(  1 -  1) =    -70.52706  eV     1   --> A'             
     e(  2 -  2) =    -35.99646  eV     1   --> A'             
     e(  3 -  3) =    -35.88570  eV     1   --> A''            
     e(  4 -  4) =    -35.65134  eV     1   --> A'             
     e(  5 -  5) =     12.89768  eV     1   --> A'             
     e(  6 -  6) =     14.28367  eV     1   --> A''            
     e(  7 -  7) =     16.41691  eV     1   --> A'             
     e(  8 -  8) =     16.45397  eV     1   --> A'             
     e(  9 -  9) =     17.78485  eV     1   --> A''            
     e( 10 - 10) =     20.74209  eV     1   --> A'             
     e( 11 - 11) =     25.34656  eV     1   --> A'             
     e( 12 - 12) =     36.95146  eV     1   --> A'             

 **************************************************************************

 **************************************************************************

                    xk=(   0.00000,  -0.48039,   0.50000  )

     Band symmetry, C_s (m)     point group:

     e(  1 -  1) =    -70.53211  eV     1   --> A'             
     e(  2 -  2) =    -35.99807  eV     1   --> A'             
     e(  3 -  3) =    -35.88533  eV     1   --> A''            
     e(  4 -  4) =    -35.68199  eV     1   --> A'             
     e(  5 -  5) =     12.89115  eV     1   --> A'             
     e(  6 -  6) =     14.27943  eV     1   --> A''            
     e(  7 -  7) =     16.41623  eV     1   --> A'             
     e(  8 -  8) =     16.46280  eV     1   --> A'             
     e(  9 -  9) =     17.78879  eV     1   --> A''            
     e( 10 - 10) =     20.77071  eV     1   --> A'             
     e( 11 - 11) =     25.29380  eV     1   --> A'             
     e( 12 - 12) =     36.94467  eV     1   --> A'             

 **************************************************************************

 **************************************************************************

                    xk=(   0.00000,  -0.49020,   0.50000  )

     Band symmetry, C_s (m)     point group:

     e(  1 -  1) =    -70.55032  eV     1   --> A'             
     e(  2 -  2) =    -36.03429  eV     1   --> A'             
     e(  3 -  3) =    -35.90281  eV     1   --> A''            
     e(  4 -  4) =    -35.72553  eV     1   --> A'             
     e(  5 -  5) =     12.88545  eV     1   --> A'             
     e(  6 -  6) =     14.27655  eV     1   --> A''            
     e(  7 -  7) =     16.41270  eV     1   --> A'             
     e(  8 -  8) =     16.46691  eV     1   --> A'             
     e(  9 -  9) =     17.78592  eV     1   --> A''            
     e( 10 - 10) =     20.74939  eV     1   --> A'             
     e( 11 - 11) =     25.22053  eV     1   --> A'             
     e( 12 - 12) =     36.93021  eV     1   --> A'             

 **************************************************************************

 **************************************************************************

                    xk=(   0.00000,  -0.50000,   0.50000  )

     point group D_2h (mmm) 
     there are  8 classes
     the character table:

       E     C2    C2'   C2''  i     s_v   s_v'  s_v''
A_g    1.00  1.00  1.00  1.00  1.00  1.00  1.00  1.00
B_1g   1.00  1.00 -1.00 -1.00  1.00  1.00 -1.00 -1.00
B_2g   1.00 -1.00  1.00 -1.00  1.00 -1.00  1.00 -1.00
B_3g   1.00 -1.00 -1.00  1.00  1.00 -1.00 -1.00  1.00
A_u    1.00  1.00  1.00  1.00 -1.00 -1.00 -1.00 -1.00
B_1u   1.00  1.00 -1.00 -1.00 -1.00 -1.00  1.00  1.00
B_2u   1.00 -1.00  1.00 -1.00 -1.00  1.00 -1.00  1.00
B_3u   1.00 -1.00 -1.00  1.00 -1.00  1.00  1.00 -1.00

     the symmetry operations in each class and the name of the first element:

     E        1
                                                                 
     C2       2
                                                                 
     C2'      3
                                                                 
     C2''     4
                                                                 
     i        5
                                                                 
     s_v      6
                                                                 
     s_v'     7
                                                                 
     s_v''    8
                                                                 

     Band symmetry, D_2h (mmm)  point group:

     e(  1 -  1) =    -70.55033  eV     1   --> A_g            
     e(  2 -  2) =    -36.03449  eV     1   --> B_3u           
     e(  3 -  3) =    -35.90285  eV     1   --> B_1u           
     e(  4 -  4) =    -35.72552  eV     1   --> B_2u           
     e(  5 -  5) =     12.88465  eV     1   --> A_g            
     e(  6 -  6) =     14.27571  eV     1   --> B_3g           
     e(  7 -  7) =     16.41331  eV     1   --> A_g            
     e(  8 -  8) =     16.46891  eV     1   --> B_1g           
     e(  9 -  9) =     17.78664  eV     1   --> B_2g           
     e( 10 - 10) =     20.75487  eV     1   --> B_3u           
     e( 11 - 11) =     25.21089  eV     1   --> A_g            
     e( 12 - 12) =     36.93148  eV     1   --> B_2u           

 **************************************************************************
 
     BANDS        :      2.31s CPU      2.97s WALL

 
   This run was terminated on:   9: 9:53  28Oct2023            

=------------------------------------------------------------------------------=
   JOB DONE.
=------------------------------------------------------------------------------=
