[0] MPI startup(): I_MPI_TCP_NETMASK variable has been removed from the product, its value is ignored


     Program PWSCF v.7.2 starts on 12Mar2024 at 18:25:27 

     This program is part of the open-source Quantum ESPRESSO suite
     for quantum simulation of materials; please cite
         "P. Giannozzi et al., J. Phys.:Condens. Matter 21 395502 (2009);
         "P. Giannozzi et al., J. Phys.:Condens. Matter 29 465901 (2017);
         "P. Giannozzi et al., J. Chem. Phys. 152 154105 (2020);
          URL http://www.quantum-espresso.org", 
     in publications or presentations arising from this work. More details at
     http://www.quantum-espresso.org/quote

     Parallel version (MPI), running on    16 processors

     MPI processes distributed on     1 nodes
     30201 MiB available memory on the printing compute node when the environment starts
 
     Reading input from espresso.pwi
Warning: card &CELL ignored
Warning: card / ignored

     Current dimensions of program PWSCF are:
     Max number of different atomic species (ntypx) = 10
     Max number of k-points (npk) =  40000
     Max angular momentum in pseudopotentials (lmaxx) =  4
     Presently no symmetry can be used with electric field


     IMPORTANT: XC functional enforced from input :
     Exchange-correlation= VDW-DF2-B86R
                           (   1   4  26   0   2   0   0)
     Any further DFT definition will be discarded
     Please, verify this is what you really want

 
     R & G space division:  proc/nbgrp/npool/nimage =      16
     Subspace diagonalization in iterative solution of the eigenvalue problem:
     a serial algorithm will be used

 
     Parallelization info
     --------------------
     sticks:   dense  smooth     PW     G-vecs:    dense   smooth      PW
     Min          67      34     10                 7115     2515     444
     Max          68      36     11                 7126     2519     463
     Sum        1085     551    167               113933    40273    7201
 
     Using Slab Decomposition
 


     bravais-lattice index     =            0
     lattice parameter (alat)  =       5.6973  a.u.
     unit-cell volume          =     642.1518 (a.u.)^3
     number of atoms/cell      =            4
     number of atomic types    =            2
     number of electrons       =         8.00
     number of Kohn-Sham states=            8
     kinetic-energy cutoff     =      60.0000  Ry
     charge density cutoff     =     480.0000  Ry
     scf convergence threshold =      1.0E-06
     mixing beta               =       0.7000
     number of iterations used =            8  plain     mixing
     Exchange-correlation= VDW-DF2-B86R
                           (   1   4  26   0   2   0   0)

     celldm(1)=   5.697334  celldm(2)=   0.000000  celldm(3)=   0.000000
     celldm(4)=   0.000000  celldm(5)=   0.000000  celldm(6)=   0.000000

     crystal axes: (cart. coord. in units of alat)
               a(1) = (   0.999994  -0.003591   0.000000 )  
               a(2) = (   0.503167   0.875437   0.000000 )  
               a(3) = (   0.000000   0.000000   3.958265 )  

     reciprocal axes: (cart. coord. in units 2 pi/alat)
               b(1) = (  0.997946 -0.573581  0.000000 )  
               b(2) = (  0.004094  1.139933  0.000000 )  
               b(3) = (  0.000000  0.000000  0.252636 )  


     PseudoPot. # 1 for B  read from file:
     /home/krojas/QE/pseudo/b_pbe_v1.4.uspp.F.UPF
     MD5 check sum: cc6de2960df11db49a60e589f9ebb39b
     Pseudo is Ultrasoft + core correction, Zval =  3.0
     Generated by new atomic code, or converted to UPF format
     Using radial grid of  781 points,  4 beta functions with: 
                l(1) =   0
                l(2) =   0
                l(3) =   1
                l(4) =   1
     Q(r) pseudized with  8 coefficients,  rinner =    1.100   1.100   1.100


     PseudoPot. # 2 for H  read from file:
     /home/krojas/QE/pseudo/h_pbe_v1.4.uspp.F.UPF
     MD5 check sum: 761ae9a214b05c3daf00ab9f6b793d6f
     Pseudo is Ultrasoft, Zval =  1.0
     Generated by new atomic code, or converted to UPF format
     Using radial grid of  615 points,  2 beta functions with: 
                l(1) =   0
                l(2) =   0
     Q(r) pseudized with  8 coefficients,  rinner =    0.700

     atomic species   valence    mass     pseudopotential
        B              3.00    10.81000     B ( 1.00)
        H              1.00     1.00800     H ( 1.00)

     No symmetry found



   Cartesian axes

     site n.     atom                  positions (alat units)
         1           B   tau(   1) = (   0.0000000   0.0000000   1.9791325  )
         2           B   tau(   2) = (   0.5009657   0.2715580   1.9824494  )
         3           H   tau(   3) = (   0.5020846   0.5735104   2.2998349  )
         4           H   tau(   4) = (   0.5020846   0.5735104   1.6584302  )

     number of k points=    74  Gaussian smearing, width (Ry)=  0.0100
                       cart. coord. in units 2pi/alat
        k(    1) = (   0.0000000   0.0000000   0.0000000), wk =   0.0138889
        k(    2) = (   0.0003412   0.0949944   0.0000000), wk =   0.0277778
        k(    3) = (   0.0006823   0.1899889   0.0000000), wk =   0.0277778
        k(    4) = (   0.0010235   0.2849833   0.0000000), wk =   0.0277778
        k(    5) = (   0.0013646   0.3799777   0.0000000), wk =   0.0277778
        k(    6) = (   0.0017058   0.4749722   0.0000000), wk =   0.0277778
        k(    7) = (  -0.0020470  -0.5699666   0.0000000), wk =   0.0138889
        k(    8) = (   0.0831622  -0.0477984   0.0000000), wk =   0.0277778
        k(    9) = (   0.0835034   0.0471960   0.0000000), wk =   0.0277778
        k(   10) = (   0.0838445   0.1421905   0.0000000), wk =   0.0277778
        k(   11) = (   0.0841857   0.2371849   0.0000000), wk =   0.0277778
        k(   12) = (   0.0845269   0.3321793   0.0000000), wk =   0.0277778
        k(   13) = (   0.0848680   0.4271738   0.0000000), wk =   0.0277778
        k(   14) = (   0.0811152  -0.6177650   0.0000000), wk =   0.0277778
        k(   15) = (   0.0814564  -0.5227706   0.0000000), wk =   0.0277778
        k(   16) = (   0.0817976  -0.4277762   0.0000000), wk =   0.0277778
        k(   17) = (   0.0821387  -0.3327817   0.0000000), wk =   0.0277778
        k(   18) = (   0.0824799  -0.2377873   0.0000000), wk =   0.0277778
        k(   19) = (   0.0828210  -0.1427928   0.0000000), wk =   0.0277778
        k(   20) = (   0.1663244  -0.0955968   0.0000000), wk =   0.0277778
        k(   21) = (   0.1666656  -0.0006024   0.0000000), wk =   0.0277778
        k(   22) = (   0.1670067   0.0943921   0.0000000), wk =   0.0277778
        k(   23) = (   0.1673479   0.1893865   0.0000000), wk =   0.0277778
        k(   24) = (   0.1676891   0.2843809   0.0000000), wk =   0.0277778
        k(   25) = (   0.1680302   0.3793754   0.0000000), wk =   0.0277778
        k(   26) = (   0.1642774  -0.6655634   0.0000000), wk =   0.0277778
        k(   27) = (   0.1646186  -0.5705690   0.0000000), wk =   0.0277778
        k(   28) = (   0.1649598  -0.4755746   0.0000000), wk =   0.0277778
        k(   29) = (   0.1653009  -0.3805801   0.0000000), wk =   0.0277778
        k(   30) = (   0.1656421  -0.2855857   0.0000000), wk =   0.0277778
        k(   31) = (   0.1659833  -0.1905913   0.0000000), wk =   0.0277778
        k(   32) = (   0.2494866  -0.1433952   0.0000000), wk =   0.0277778
        k(   33) = (   0.2498278  -0.0484008   0.0000000), wk =   0.0277778
        k(   34) = (   0.2501689   0.0465936   0.0000000), wk =   0.0277778
        k(   35) = (   0.2505101   0.1415881   0.0000000), wk =   0.0277778
        k(   36) = (   0.2508513   0.2365825   0.0000000), wk =   0.0277778
        k(   37) = (   0.2511924   0.3315769   0.0000000), wk =   0.0277778
        k(   38) = (   0.2474397  -0.7133618   0.0000000), wk =   0.0277778
        k(   39) = (   0.2477808  -0.6183674   0.0000000), wk =   0.0277778
        k(   40) = (   0.2481220  -0.5233730   0.0000000), wk =   0.0277778
        k(   41) = (   0.2484631  -0.4283785   0.0000000), wk =   0.0277778
        k(   42) = (   0.2488043  -0.3333841   0.0000000), wk =   0.0277778
        k(   43) = (   0.2491455  -0.2383897   0.0000000), wk =   0.0277778
        k(   44) = (   0.3326488  -0.1911936   0.0000000), wk =   0.0277778
        k(   45) = (   0.3329900  -0.0961992   0.0000000), wk =   0.0277778
        k(   46) = (   0.3333312  -0.0012048   0.0000000), wk =   0.0277778
        k(   47) = (   0.3336723   0.0937897   0.0000000), wk =   0.0277778
        k(   48) = (   0.3340135   0.1887841   0.0000000), wk =   0.0277778
        k(   49) = (   0.3343546   0.2837785   0.0000000), wk =   0.0277778
        k(   50) = (   0.3306019  -0.7611603   0.0000000), wk =   0.0277778
        k(   51) = (   0.3309430  -0.6661658   0.0000000), wk =   0.0277778
        k(   52) = (   0.3312842  -0.5711714   0.0000000), wk =   0.0277778
        k(   53) = (   0.3316253  -0.4761769   0.0000000), wk =   0.0277778
        k(   54) = (   0.3319665  -0.3811825   0.0000000), wk =   0.0277778
        k(   55) = (   0.3323077  -0.2861881   0.0000000), wk =   0.0277778
        k(   56) = (   0.4158110  -0.2389921   0.0000000), wk =   0.0277778
        k(   57) = (   0.4161522  -0.1439976   0.0000000), wk =   0.0277778
        k(   58) = (   0.4164934  -0.0490032   0.0000000), wk =   0.0277778
        k(   59) = (   0.4168345   0.0459913   0.0000000), wk =   0.0277778
        k(   60) = (   0.4171757   0.1409857   0.0000000), wk =   0.0277778
        k(   61) = (   0.4175169   0.2359801   0.0000000), wk =   0.0277778
        k(   62) = (   0.4137641  -0.8089587   0.0000000), wk =   0.0277778
        k(   63) = (   0.4141052  -0.7139642   0.0000000), wk =   0.0277778
        k(   64) = (   0.4144464  -0.6189698   0.0000000), wk =   0.0277778
        k(   65) = (   0.4147876  -0.5239754   0.0000000), wk =   0.0277778
        k(   66) = (   0.4151287  -0.4289809   0.0000000), wk =   0.0277778
        k(   67) = (   0.4154699  -0.3339865   0.0000000), wk =   0.0277778
        k(   68) = (  -0.4989732   0.2867905   0.0000000), wk =   0.0138889
        k(   69) = (  -0.4986321   0.3817849   0.0000000), wk =   0.0277778
        k(   70) = (  -0.4982909   0.4767793   0.0000000), wk =   0.0277778
        k(   71) = (  -0.4979498   0.5717738   0.0000000), wk =   0.0277778
        k(   72) = (  -0.4976086   0.6667682   0.0000000), wk =   0.0277778
        k(   73) = (  -0.4972674   0.7617626   0.0000000), wk =   0.0277778
        k(   74) = (  -0.5010202  -0.2831762   0.0000000), wk =   0.0138889

     Dense  grid:   113933 G-vectors     FFT dimensions: (  40,  45, 160)

     Smooth grid:    40273 G-vectors     FFT dimensions: (  30,  30, 120)

     Estimated max dynamical RAM per process >      13.53 MB

     Estimated total dynamical RAM >     216.40 MB

     Initial potential from superposition of free atoms

     starting charge       7.9994, renormalised to       8.0000

     negative rho (up, down):  1.263E-05 0.000E+00


     %%%%%%%%%%%%%%%%%%%%%%%%%%%%%%%%%%%%%%%%%%%%%%%%%%%%%%%%%%%%%%%%%%%%%%%%
     %                                                                      %
     % You are using vdW-DF, which was implemented by the Thonhauser group. %
     % Please cite the following two papers that made this development      %
     % possible and the two reviews that describe the various versions:     %
     %                                                                      %
     %   T. Thonhauser et al., PRL 115, 136402 (2015).                      %
     %   T. Thonhauser et al., PRB 76, 125112 (2007).                       %
     %   K. Berland et al., Rep. Prog. Phys. 78, 066501 (2015).             %
     %   D.C. Langreth et al., J. Phys.: Condens. Matter 21, 084203 (2009). %
     %                                                                      %
     % If you are calculating stress with vdW-DF, please also cite:         %
     %                                                                      %
     %   R. Sabatini et al., J. Phys.: Condens. Matter 24, 424209 (2012).   %
     %                                                                      %
     %%%%%%%%%%%%%%%%%%%%%%%%%%%%%%%%%%%%%%%%%%%%%%%%%%%%%%%%%%%%%%%%%%%%%%%%

     %%%%%%%%%%%%%%%%%%%%%%%%%%%%%%%%%%%%%%%%%%%%%%%%%%%%%%%%%%%%%%%%%%%%%%%%
     %                                                                      %
     %  vdW-DF NEWS:                                                        %
     %                                                                      %
     %  * vdW-DF3 is now available. DOI: 10.1021/acs.jctc.0c00471           %
     %    use with input_dft = 'vdW-DF3-opt1' or 'vdW-DF3-opt2'             %
     %                                                                      %
     %  * Unscreened and range-separated hybrid vdW-DF-cx functionals       %
     %    DOI: 10.1063/1.4986522 and 10.1088/1361-648X/ac2ad2               %
     %    use with input_dft = 'vdW-DF-cx0'    and 'vdW-DF-ahcx'            %
     %  * Unscreened and range-separated hybrid vdW-DF2-b86r functionals    %
     %    DOI: 10.1063/1.4986522 and DOI: 10.1103/PhysRevX.12.041003        %
     %    use with input_dft = 'vdW-DF2-br0' and 'vdW-DF2-ahbr'             %
     %                                                                      %
     %%%%%%%%%%%%%%%%%%%%%%%%%%%%%%%%%%%%%%%%%%%%%%%%%%%%%%%%%%%%%%%%%%%%%%%%


 
     Adding external electric field

     Computed dipole along edir(3) : 
        Dipole                0.0000 Ry au,          0.0000 Debye
        Dipole field          0.0000 Ry au, 
 
        Potential amp.       -0.0000 Ry
        Total length         22.5493 bohr
 
     Starting wfcs are   10 randomized atomic wfcs

     total cpu time spent up to now is       14.3 secs

     Self-consistent Calculation

     iteration #  1     ecut=    60.00 Ry     beta= 0.70
     Davidson diagonalization with overlap
     ethr =  1.00E-02,  avg # of iterations =  3.8

     negative rho (up, down):  1.272E-05 0.000E+00
 
     Adding external electric field

     Computed dipole along edir(3) : 
        Dipole               -0.0057 Ry au,         -0.0145 Debye
        Dipole field         -0.0001 Ry au, 
 
        Potential amp.        0.0050 Ry
        Total length         22.5493 bohr
 

     total cpu time spent up to now is       15.1 secs

     total energy              =     -15.04544603 Ry
     estimated scf accuracy    <       0.32926782 Ry

     iteration #  2     ecut=    60.00 Ry     beta= 0.70
     Davidson diagonalization with overlap
     ethr =  4.12E-03,  avg # of iterations =  3.9

     negative rho (up, down):  2.165E-05 0.000E+00
 
     Adding external electric field

     Computed dipole along edir(3) : 
        Dipole                0.0099 Ry au,          0.0251 Debye
        Dipole field          0.0002 Ry au, 
 
        Potential amp.       -0.0087 Ry
        Total length         22.5493 bohr
 

     total cpu time spent up to now is       15.8 secs

     total energy              =     -15.10073738 Ry
     estimated scf accuracy    <       0.01909746 Ry

     iteration #  3     ecut=    60.00 Ry     beta= 0.70
     Davidson diagonalization with overlap
     ethr =  2.39E-04,  avg # of iterations =  4.9

     negative rho (up, down):  3.065E-05 0.000E+00
 
     Adding external electric field

     Computed dipole along edir(3) : 
        Dipole               -0.0197 Ry au,         -0.0501 Debye
        Dipole field         -0.0004 Ry au, 
 
        Potential amp.        0.0174 Ry
        Total length         22.5493 bohr
 

     total cpu time spent up to now is       16.6 secs

     total energy              =     -15.10405565 Ry
     estimated scf accuracy    <       0.00072903 Ry

     iteration #  4     ecut=    60.00 Ry     beta= 0.70
     Davidson diagonalization with overlap
     ethr =  9.11E-06,  avg # of iterations =  6.2

     negative rho (up, down):  3.144E-05 0.000E+00
 
     Adding external electric field

     Computed dipole along edir(3) : 
        Dipole                0.0017 Ry au,          0.0044 Debye
        Dipole field          0.0000 Ry au, 
 
        Potential amp.       -0.0015 Ry
        Total length         22.5493 bohr
 

     total cpu time spent up to now is       17.5 secs

     total energy              =     -15.10411529 Ry
     estimated scf accuracy    <       0.00063193 Ry

     iteration #  5     ecut=    60.00 Ry     beta= 0.70
     Davidson diagonalization with overlap
     ethr =  7.90E-06,  avg # of iterations =  2.9

     negative rho (up, down):  3.308E-05 0.000E+00
 
     Adding external electric field

     Computed dipole along edir(3) : 
        Dipole                0.0004 Ry au,          0.0011 Debye
        Dipole field          0.0000 Ry au, 
 
        Potential amp.       -0.0004 Ry
        Total length         22.5493 bohr
 

     total cpu time spent up to now is       18.2 secs

     total energy              =     -15.10423374 Ry
     estimated scf accuracy    <       0.00000566 Ry

     iteration #  6     ecut=    60.00 Ry     beta= 0.70
     Davidson diagonalization with overlap
     ethr =  7.08E-08,  avg # of iterations =  2.1

     negative rho (up, down):  3.347E-05 0.000E+00
 
     Adding external electric field

     Computed dipole along edir(3) : 
        Dipole               -0.0003 Ry au,         -0.0006 Debye
        Dipole field         -0.0000 Ry au, 
 
        Potential amp.        0.0002 Ry
        Total length         22.5493 bohr
 

     total cpu time spent up to now is       18.8 secs

     End of self-consistent calculation

          k = 0.0000 0.0000 0.0000 (  5017 PWs)   bands (ev):

   -14.5339  -8.8567  -3.0982  -0.6487   0.5616   1.9331   2.9045   5.5949

          k = 0.0003 0.0950 0.0000 (  4979 PWs)   bands (ev):

   -14.4353  -8.7390  -3.4849  -0.8952   0.6844   2.0742   3.0322   5.6996

          k = 0.0007 0.1900 0.0000 (  4988 PWs)   bands (ev):

   -14.1444  -8.3913  -4.4732  -1.4611   1.0681   2.4792   3.4218   3.9674

          k = 0.0010 0.2850 0.0000 (  5020 PWs)   bands (ev):

   -13.6793  -7.8333  -5.7403  -2.0766   1.7113   1.9087   3.2978   4.0490

          k = 0.0014 0.3800 0.0000 (  5038 PWs)   bands (ev):

   -13.0863  -7.1175  -7.0177  -2.5829   0.1848   2.5835   4.2647   4.6366

          k = 0.0017 0.4750 0.0000 (  5038 PWs)   bands (ev):

   -12.4899  -8.0642  -6.3845  -2.9070  -1.1739   3.4601   4.9179   5.5237

          k =-0.0020-0.5700 0.0000 (  5036 PWs)   bands (ev):

   -12.2000  -8.5093  -6.0219  -3.0179  -1.7483   3.7899   5.6257   6.1126

          k = 0.0832-0.0478 0.0000 (  5007 PWs)   bands (ev):

   -14.4355  -8.7559  -3.3755  -1.0355   0.6974   2.0742   3.0462   5.6636

          k = 0.0835 0.0472 0.0000 (  5007 PWs)   bands (ev):

   -14.4355  -8.7559  -3.3756  -1.0354   0.6974   2.0742   3.0462   5.6641

          k = 0.0838 0.1422 0.0000 (  5003 PWs)   bands (ev):

   -14.2409  -8.5249  -4.0663  -1.4395   0.9507   2.3490   3.3068   4.8488

          k = 0.0842 0.2372 0.0000 (  5010 PWs)   bands (ev):

   -13.8629  -8.0749  -5.1636  -2.0777   1.4714   2.6209   3.2012   3.8341

          k = 0.0845 0.3322 0.0000 (  5029 PWs)   bands (ev):

   -13.3311  -7.4394  -6.3992  -2.6979   1.0216   2.2482   3.8447   4.5674

          k = 0.0849 0.4272 0.0000 (  5030 PWs)   bands (ev):

   -12.7219  -7.5480  -6.7049  -3.1544  -0.5040   3.2029   4.9546   5.1288

          k = 0.0811-0.6178 0.0000 (  5055 PWs)   bands (ev):

   -12.2386  -8.3202  -6.1144  -3.3914  -1.5004   3.9978   5.5576   6.2836

          k = 0.0815-0.5228 0.0000 (  5055 PWs)   bands (ev):

   -12.2386  -8.3202  -6.1143  -3.3914  -1.5004   3.9978   5.5577   6.2836

          k = 0.0818-0.4278 0.0000 (  5030 PWs)   bands (ev):

   -12.7219  -7.5480  -6.7049  -3.1544  -0.5040   3.2029   4.9546   5.1288

          k = 0.0821-0.3328 0.0000 (  5029 PWs)   bands (ev):

   -13.3311  -7.4393  -6.3992  -2.6979   1.0216   2.2483   3.8448   4.5672

          k = 0.0825-0.2378 0.0000 (  5010 PWs)   bands (ev):

   -13.8628  -8.0749  -5.1635  -2.0778   1.4714   2.6210   3.2012   3.8341

          k = 0.0828-0.1428 0.0000 (  5003 PWs)   bands (ev):

   -14.2409  -8.5249  -4.0661  -1.4397   0.9507   2.3490   3.3067   4.8489

          k = 0.1663-0.0956 0.0000 (  5007 PWs)   bands (ev):

   -14.1464  -8.4638  -4.1304  -1.9019   1.1111   2.4857   3.4743   5.3138

          k = 0.1667-0.0006 0.0000 (  4991 PWs)   bands (ev):

   -14.2418  -8.5752  -3.7753  -1.8095   0.9825   2.3545   3.3427   5.9823

          k = 0.1670 0.0944 0.0000 (  5007 PWs)   bands (ev):

   -14.1464  -8.4638  -4.1307  -1.9015   1.1110   2.4857   3.4743   5.3136

          k = 0.1673 0.1894 0.0000 (  5031 PWs)   bands (ev):

   -13.8658  -8.1363  -4.9458  -2.3558   1.5013   2.7885   3.7043   3.8764

          k = 0.1677 0.2844 0.0000 (  5037 PWs)   bands (ev):

   -13.4207  -7.6164  -5.9420  -3.0822   1.7744   2.1609   3.7377   4.5415

          k = 0.1680 0.3794 0.0000 (  5046 PWs)   bands (ev):

   -12.8620  -6.9787  -6.9551  -3.7546   0.2964   3.0554   4.6623   5.4150

          k = 0.1643-0.6656 0.0000 (  5071 PWs)   bands (ev):

   -12.3162  -7.8388  -6.3236  -4.1902  -0.8660   4.0811   5.7908   6.1223

          k = 0.1646-0.5706 0.0000 (  5067 PWs)   bands (ev):

   -12.0606  -8.2094  -6.0238  -4.3378  -1.3436   4.6951   6.5039   6.5571

          k = 0.1650-0.4756 0.0000 (  5071 PWs)   bands (ev):

   -12.3162  -7.8388  -6.3235  -4.1903  -0.8659   4.0811   5.7906   6.1223

          k = 0.1653-0.3806 0.0000 (  5048 PWs)   bands (ev):

   -12.8619  -6.9787  -6.9551  -3.7547   0.2965   3.0555   4.6624   5.4150

          k = 0.1656-0.2856 0.0000 (  5037 PWs)   bands (ev):

   -13.4206  -7.6163  -5.9419  -3.0825   1.7746   2.1610   3.7378   4.5416

          k = 0.1660-0.1906 0.0000 (  5031 PWs)   bands (ev):

   -13.8658  -8.1362  -4.9456  -2.3562   1.5013   2.7885   3.7044   3.8765

          k = 0.2495-0.1434 0.0000 (  5031 PWs)   bands (ev):

   -13.6894  -8.0152  -5.2044  -2.7777   1.8042   2.9958   3.9821   4.1884

          k = 0.2498-0.0484 0.0000 (  5026 PWs)   bands (ev):

   -13.8685  -8.2169  -4.5817  -2.8095   1.5423   2.8928   3.9219   5.1348

          k = 0.2502 0.0466 0.0000 (  5026 PWs)   bands (ev):

   -13.8685  -8.2170  -4.5820  -2.8091   1.5423   2.8928   3.9220   5.1344

          k = 0.2505 0.1416 0.0000 (  5031 PWs)   bands (ev):

   -13.6895  -8.0152  -5.2048  -2.7771   1.8042   2.9956   3.9818   4.1883

          k = 0.2509 0.2366 0.0000 (  5038 PWs)   bands (ev):

   -13.3464  -7.6294  -5.9703  -3.2448   2.1742   2.3328   3.9553   4.7073

          k = 0.2512 0.3316 0.0000 (  5053 PWs)   bands (ev):

   -12.8776  -7.1048  -6.7028  -4.0706   0.9573   3.1048   4.6898   5.5114

          k = 0.2474-0.7134 0.0000 (  5056 PWs)   bands (ev):

   -12.3696  -7.3447  -6.5395  -4.8390  -0.0956   4.0817   5.5528   6.4663

          k = 0.2478-0.6184 0.0000 (  5062 PWs)   bands (ev):

   -12.0004  -7.7734  -6.1328  -5.2729  -0.7504   5.0235   5.9125   6.9649

          k = 0.2481-0.5234 0.0000 (  5062 PWs)   bands (ev):

   -12.0003  -7.7734  -6.1328  -5.2729  -0.7504   5.0235   5.9124   6.9651

          k = 0.2485-0.4284 0.0000 (  5056 PWs)   bands (ev):

   -12.3695  -7.3446  -6.5395  -4.8392  -0.0954   4.0818   5.5528   6.4664

          k = 0.2488-0.3334 0.0000 (  5053 PWs)   bands (ev):

   -12.8775  -7.1048  -6.7026  -4.0709   0.9576   3.1049   4.6899   5.5115

          k = 0.2491-0.2384 0.0000 (  5038 PWs)   bands (ev):

   -13.3463  -7.6294  -5.9700  -3.2454   2.1745   2.3329   3.9553   4.7075

          k = 0.3326-0.1912 0.0000 (  5036 PWs)   bands (ev):

   -13.1204  -7.4861  -6.3742  -3.4315   2.1823   2.7643   4.3980   4.7587

          k = 0.3330-0.0962 0.0000 (  5043 PWs)   bands (ev):

   -13.3522  -7.7306  -5.6747  -3.6105   2.3723   3.1666   4.0580   4.7812

          k = 0.3333-0.0012 0.0000 (  5043 PWs)   bands (ev):

   -13.4327  -7.8158  -5.2362  -3.9223   2.2403   3.5399   4.1822   4.6482

          k = 0.3337 0.0938 0.0000 (  5043 PWs)   bands (ev):

   -13.3522  -7.7306  -5.6752  -3.6099   2.3722   3.1662   4.0580   4.7811

          k = 0.3340 0.1888 0.0000 (  5036 PWs)   bands (ev):

   -13.1205  -7.4861  -6.3746  -3.4308   2.1819   2.7642   4.3976   4.7595

          k = 0.3344 0.2838 0.0000 (  5056 PWs)   bands (ev):

   -12.7709  -7.1196  -6.9568  -3.8883   1.2443   3.3970   5.0428   5.1359

          k = 0.3306-0.7612 0.0000 (  5051 PWs)   bands (ev):

   -12.3718  -7.3101  -6.7020  -4.7790   0.5061   4.2417   5.7178   6.3170

          k = 0.3309-0.6662 0.0000 (  5056 PWs)   bands (ev):

   -12.0385  -7.3847  -6.3533  -5.6728   0.0231   5.1252   5.4979   7.1183

          k = 0.3313-0.5712 0.0000 (  5049 PWs)   bands (ev):

   -11.9058  -7.3166  -6.2136  -6.1035  -0.1484   5.2359   5.5448   7.5019

          k = 0.3316-0.4762 0.0000 (  5056 PWs)   bands (ev):

   -12.0384  -7.3845  -6.3533  -5.6732   0.0233   5.1253   5.4977   7.1186

          k = 0.3320-0.3812 0.0000 (  5051 PWs)   bands (ev):

   -12.3717  -7.3098  -6.7020  -4.7795   0.5064   4.2419   5.7177   6.3160

          k = 0.3323-0.2862 0.0000 (  5056 PWs)   bands (ev):

   -12.7708  -7.1196  -6.9564  -3.8889   1.2448   3.3971   5.0429   5.1351

          k = 0.4158-0.2390 0.0000 (  5035 PWs)   bands (ev):

   -12.5741  -7.3437  -7.0206  -3.8220   1.2034   3.9285   4.5658   5.6241

          k = 0.4162-0.1440 0.0000 (  5059 PWs)   bands (ev):

   -12.7795  -7.2144  -6.7845  -4.1002   1.9267   3.4468   4.9601   5.1887

          k = 0.4165-0.0490 0.0000 (  5060 PWs)   bands (ev):

   -12.8973  -7.3247  -6.0968  -4.7616   2.7430   3.1930   4.3811   5.6350

          k = 0.4168 0.0460 0.0000 (  5060 PWs)   bands (ev):

   -12.8973  -7.3247  -6.0971  -4.7612   2.7427   3.1930   4.3812   5.6349

          k = 0.4172 0.1410 0.0000 (  5059 PWs)   bands (ev):

   -12.7795  -7.2144  -6.7849  -4.0996   1.9262   3.4467   4.9600   5.1896

          k = 0.4175 0.2360 0.0000 (  5035 PWs)   bands (ev):

   -12.5742  -7.3441  -7.0206  -3.8213   1.2028   3.9284   4.5666   5.6240

          k = 0.4138-0.8090 0.0000 (  5051 PWs)   bands (ev):

   -12.3421  -7.6009  -6.7963  -4.2389   0.7718   4.5574   5.0436   6.3350

          k = 0.4141-0.7140 0.0000 (  5056 PWs)   bands (ev):

   -12.1565  -7.4741  -6.6041  -5.1284   0.6503   5.0928   5.7496   6.2880

          k = 0.4144-0.6190 0.0000 (  5053 PWs)   bands (ev):

   -12.0617  -6.9599  -6.4958  -6.1088   0.7085   4.9360   5.2012   7.2573

          k = 0.4148-0.5240 0.0000 (  5053 PWs)   bands (ev):

   -12.0617  -6.9595  -6.4958  -6.1092   0.7086   4.9358   5.2012   7.2576

          k = 0.4151-0.4290 0.0000 (  5056 PWs)   bands (ev):

   -12.1564  -7.4738  -6.6041  -5.1290   0.6507   5.0929   5.7493   6.2871

          k = 0.4155-0.3340 0.0000 (  5051 PWs)   bands (ev):

   -12.3420  -7.6005  -6.7963  -4.2395   0.7722   4.5575   5.0427   6.3350

          k =-0.4990 0.2868 0.0000 (  5038 PWs)   bands (ev):

   -12.3240  -7.7441  -6.8264  -3.9516   0.8246   4.4808   4.8313   6.2524

          k =-0.4986 0.3818 0.0000 (  5049 PWs)   bands (ev):

   -12.3472  -7.5442  -6.8381  -4.3067   1.0063   4.6105   5.0273   6.1727

          k =-0.4983 0.4768 0.0000 (  5054 PWs)   bands (ev):

   -12.3919  -6.9927  -6.8607  -5.1301   1.4566   4.3209   5.1636   6.3674

          k =-0.4979 0.5718 0.0000 (  5075 PWs)   bands (ev):

   -12.4134  -6.8728  -6.3837  -5.8589   1.7626   4.2106   4.6275   6.6883

          k =-0.4976 0.6668 0.0000 (  5054 PWs)   bands (ev):

   -12.3919  -6.9931  -6.8607  -5.1295   1.4562   4.3209   5.1638   6.3683

          k =-0.4973 0.7618 0.0000 (  5049 PWs)   bands (ev):

   -12.3473  -7.5446  -6.8381  -4.3061   1.0058   4.6104   5.0282   6.1727

          k =-0.5010-0.2832 0.0000 (  5038 PWs)   bands (ev):

   -12.3241  -7.7444  -6.8264  -3.9509   0.8240   4.4816   4.8311   6.2521

     the Fermi energy is    -1.2503 ev

!    total energy              =     -15.10423519 Ry
     estimated scf accuracy    <       0.00000035 Ry
     smearing contrib. (-TS)   =      -0.00015433 Ry
     internal energy E=F+TS    =     -15.10408086 Ry

     The total energy is F=E-TS. E is the sum of the following terms:
     one-electron contribution =     -65.62217400 Ry
     hartree contribution      =      34.37206304 Ry
     xc contribution           =      -7.33897197 Ry
     ewald contribution        =      23.48500206 Ry
     electric field correction =       0.00000000 Ry

     convergence has been achieved in   6 iterations

     negative rho (up, down):  3.347E-05 0.000E+00

     Forces acting on atoms (cartesian axes, Ry/au):

     atom    1 type  1   force =    -0.00002055    0.00407077    0.00168637
     atom    2 type  1   force =     0.00002479   -0.00414129   -0.00605909
     atom    3 type  2   force =     0.00000158    0.00104861    0.00327822
     atom    4 type  2   force =    -0.00000582   -0.00097809    0.00109451
     The non-local contrib.  to forces
     atom    1 type  1   force =    -0.00130276   -0.35202769    0.00046292
     atom    2 type  1   force =     0.00132383    0.35197930   -0.00525360
     atom    3 type  2   force =    -0.00001329   -0.00158813   -0.11473809
     atom    4 type  2   force =    -0.00000144    0.00156821    0.11322206
     The ionic contribution  to forces
     atom    1 type  1   force =     0.00243495    0.69537618   -0.03521959
     atom    2 type  1   force =    -0.00253110   -0.69547806    0.03275645
     atom    3 type  2   force =     0.00008284    0.00942636    2.57777108
     atom    4 type  2   force =     0.00001331   -0.00932447   -2.57530794
     The local contribution  to forces
     atom    1 type  1   force =    -0.00118246   -0.34714918    0.03680601
     atom    2 type  1   force =     0.00126243    0.34722798   -0.03333253
     atom    3 type  2   force =    -0.00006762   -0.00679210   -2.45972069
     atom    4 type  2   force =    -0.00001745    0.00677655    2.46331715
     The core correction contribution to forces
     atom    1 type  1   force =     0.00002883    0.00767111    0.00004610
     atom    2 type  1   force =    -0.00002897   -0.00766952    0.00018078
     atom    3 type  2   force =     0.00000000    0.00000000    0.00000000
     atom    4 type  2   force =     0.00000000    0.00000000    0.00000000
     The Hubbard contrib.    to forces
     atom    1 type  1   force =     0.00000000    0.00000000    0.00000000
     atom    2 type  1   force =     0.00000000    0.00000000    0.00000000
     atom    3 type  2   force =     0.00000000    0.00000000    0.00000000
     atom    4 type  2   force =     0.00000000    0.00000000    0.00000000
     The SCF correction term to forces
     atom    1 type  1   force =     0.00000108    0.00020001   -0.00041996
     atom    2 type  1   force =    -0.00000121   -0.00020134   -0.00042109
     atom    3 type  2   force =    -0.00000017    0.00000213   -0.00002540
     atom    4 type  2   force =    -0.00000005    0.00000128   -0.00012807

     Total force =     0.009342     Total SCF correction =     0.000672

     Writing all to output data dir ./TMPDIR/pwscf.save/
 
     init_run     :     14.25s CPU     14.27s WALL (       1 calls)
     electrons    :      4.19s CPU      4.49s WALL (       1 calls)
     forces       :      0.19s CPU      0.20s WALL (       1 calls)

     Called by init_run:
     wfcinit      :      0.20s CPU      0.21s WALL (       1 calls)
     potinit      :     13.88s CPU     13.89s WALL (       1 calls)
     hinit0       :      0.14s CPU      0.14s WALL (       1 calls)

     Called by electrons:
     c_bands      :      3.27s CPU      3.41s WALL (       6 calls)
     sum_band     :      0.50s CPU      0.52s WALL (       6 calls)
     v_of_rho     :     14.18s CPU     14.27s WALL (       7 calls)
     newd         :      0.04s CPU      0.05s WALL (       7 calls)
     mix_rho      :      0.02s CPU      0.02s WALL (       6 calls)
     vdW_kernel   :     13.76s CPU     13.77s WALL (       1 calls)

     Called by c_bands:
     init_us_2    :      0.08s CPU      0.08s WALL (    1036 calls)
     init_us_2:cp :      0.08s CPU      0.08s WALL (    1036 calls)
     cegterg      :      3.11s CPU      3.24s WALL (     444 calls)

     Called by *egterg:
     cdiaghg      :      0.22s CPU      0.23s WALL (    2212 calls)
     h_psi        :      2.65s CPU      2.75s WALL (    2286 calls)
     s_psi        :      0.06s CPU      0.06s WALL (    2286 calls)
     g_psi        :      0.03s CPU      0.03s WALL (    1768 calls)

     Called by h_psi:
     h_psi:calbec :      0.10s CPU      0.11s WALL (    2286 calls)
     vloc_psi     :      2.46s CPU      2.56s WALL (    2286 calls)
     add_vuspsi   :      0.06s CPU      0.06s WALL (    2286 calls)

     General routines
     calbec       :      0.14s CPU      0.14s WALL (    3026 calls)
     fft          :      0.25s CPU      0.26s WALL (     500 calls)
     ffts         :      0.00s CPU      0.00s WALL (      13 calls)
     fftw         :      2.48s CPU      2.56s WALL (   26574 calls)
     interpolate  :      0.00s CPU      0.00s WALL (       7 calls)
 
     Parallel routines
 
     PWSCF        :     18.76s CPU     19.70s WALL

 
   This run was terminated on:  18:25:46  12Mar2024            

=------------------------------------------------------------------------------=
   JOB DONE.
=------------------------------------------------------------------------------=
