
     Program PWSCF v.7.2 starts on  8Nov2023 at 17: 0:58 

     This program is part of the open-source Quantum ESPRESSO suite
     for quantum simulation of materials; please cite
         "P. Giannozzi et al., J. Phys.:Condens. Matter 21 395502 (2009);
         "P. Giannozzi et al., J. Phys.:Condens. Matter 29 465901 (2017);
         "P. Giannozzi et al., J. Chem. Phys. 152 154105 (2020);
          URL http://www.quantum-espresso.org", 
     in publications or presentations arising from this work. More details at
     http://www.quantum-espresso.org/quote

     Parallel version (MPI), running on     4 processors

     MPI processes distributed on     1 nodes
     9314 MiB available memory on the printing compute node when the environment starts
 
     Reading input from espresso.pwi
Warning: card &CELL ignored
Warning: card / ignored

     Current dimensions of program PWSCF are:
     Max number of different atomic species (ntypx) = 10
     Max number of k-points (npk) =  40000
     Max angular momentum in pseudopotentials (lmaxx) =  4
     Presently no symmetry can be used with electric field

 
     R & G space division:  proc/nbgrp/npool/nimage =       4
     Subspace diagonalization in iterative solution of the eigenvalue problem:
     a serial algorithm will be used

 
     Parallelization info
     --------------------
     sticks:   dense  smooth     PW     G-vecs:    dense   smooth      PW
     Min        7666    3832    958              1011072   357408   44730
     Max        7670    3833    959              1011073   357411   44733
     Sum       30669   15329   3833              4044289  1429635  178925
 
     Using Slab Decomposition
 


     bravais-lattice index     =            0
     lattice parameter (alat)  =      28.3459  a.u.
     unit-cell volume          =   22775.6289 (a.u.)^3
     number of atoms/cell      =            3
     number of atomic types    =            2
     number of electrons       =         8.00
     number of Kohn-Sham states=            8
     kinetic-energy cutoff     =      60.0000  Ry
     charge density cutoff     =     480.0000  Ry
     scf convergence threshold =      1.0E-07
     mixing beta               =       0.7000
     number of iterations used =            8  plain     mixing
     Exchange-correlation=  SLA  PW   PBX  PBC
                           (   1   4   3   4   0   0   0)

     celldm(1)=  28.345892  celldm(2)=   0.000000  celldm(3)=   0.000000
     celldm(4)=   0.000000  celldm(5)=   0.000000  celldm(6)=   0.000000

     crystal axes: (cart. coord. in units of alat)
               a(1) = (   1.000000   0.000000   0.000000 )  
               a(2) = (   0.000000   1.000000   0.000000 )  
               a(3) = (   0.000000   0.000000   1.000000 )  

     reciprocal axes: (cart. coord. in units 2 pi/alat)
               b(1) = (  1.000000  0.000000  0.000000 )  
               b(2) = (  0.000000  1.000000  0.000000 )  
               b(3) = (  0.000000  0.000000  1.000000 )  


     PseudoPot. # 1 for O  read from file:
     /home/krojas/github_files/MatSciToolKit/tutorial/example_ase_ir_2/ir_1/o_pbe_v1.2.uspp.F.UPF
     MD5 check sum: 734c27235a0248c51dbae37a1fbe46ec
     Pseudo is Ultrasoft + core correction, Zval =  6.0
     Generated by new atomic code, or converted to UPF format
     Using radial grid of  737 points,  5 beta functions with: 
                l(1) =   0
                l(2) =   0
                l(3) =   1
                l(4) =   1
                l(5) =   2
     Q(r) pseudized with  8 coefficients,  rinner =    0.900   0.900   0.900
                                                       0.900   0.900

     PseudoPot. # 2 for H  read from file:
     /home/krojas/github_files/MatSciToolKit/tutorial/example_ase_ir_2/ir_1/h_pbe_v1.4.uspp.F.UPF
     MD5 check sum: 761ae9a214b05c3daf00ab9f6b793d6f
     Pseudo is Ultrasoft, Zval =  1.0
     Generated by new atomic code, or converted to UPF format
     Using radial grid of  615 points,  2 beta functions with: 
                l(1) =   0
                l(2) =   0
     Q(r) pseudized with  8 coefficients,  rinner =    0.700

     atomic species   valence    mass     pseudopotential
        O              6.00    15.99900     O ( 1.00)
        H              1.00     1.00800     H ( 1.00)

     No symmetry found



   Cartesian axes

     site n.     atom                  positions (alat units)
         1           O   tau(   1) = (   0.5000000   0.5000000   0.5208471  )
         2           H   tau(   2) = (   0.5000000   0.5513479   0.4798196  )
         3           H   tau(   3) = (   0.5000000   0.4486521   0.4798196  )

     number of k points=     1  Gaussian smearing, width (Ry)=  0.0100
                       cart. coord. in units 2pi/alat
        k(    1) = (   0.0000000   0.0000000   0.0000000), wk =   2.0000000

     Dense  grid:  4044289 G-vectors     FFT dimensions: ( 200, 200, 200)

     Smooth grid:  1429635 G-vectors     FFT dimensions: ( 144, 144, 144)

     Estimated max dynamical RAM per process >       2.25 GB

     Estimated total dynamical RAM >       9.02 GB

     Initial potential from superposition of free atoms

     starting charge       8.0000, renormalised to       8.0000

     negative rho (up, down):  5.043E-04 0.000E+00
 
     Adding external electric field

     Computed dipole along edir(3) : 
        Dipole               -0.0000 Ry au,         -0.0000 Debye
        Dipole field         -0.0000 Ry au, 
 
        Potential amp.        0.0000 Ry
        Total length         28.3431 bohr
 
     Starting wfcs are    6 randomized atomic wfcs +    2 random wfcs

     total cpu time spent up to now is        8.7 secs

     per-process dynamical memory:   488.9 Mb

     Self-consistent Calculation

     iteration #  1     ecut=    60.00 Ry     beta= 0.70
     Davidson diagonalization with overlap
     ethr =  1.00E-02,  avg # of iterations =  8.0

     negative rho (up, down):  1.815E-03 0.000E+00
 
     Adding external electric field

     Computed dipole along edir(3) : 
        Dipole               -0.8088 Ry au,         -2.0557 Debye
        Dipole field         -0.0004 Ry au, 
 
        Potential amp.        0.0253 Ry
        Total length         28.3431 bohr
 

     total cpu time spent up to now is       20.6 secs

     total energy              =     -34.47443354 Ry
     estimated scf accuracy    <       0.45308754 Ry

     iteration #  2     ecut=    60.00 Ry     beta= 0.70
     Davidson diagonalization with overlap
     ethr =  5.66E-03,  avg # of iterations =  2.0

     negative rho (up, down):  2.084E-03 0.000E+00
 
     Adding external electric field

     Computed dipole along edir(3) : 
        Dipole               -0.5852 Ry au,         -1.4874 Debye
        Dipole field         -0.0003 Ry au, 
 
        Potential amp.        0.0183 Ry
        Total length         28.3431 bohr
 

     total cpu time spent up to now is       31.2 secs

     total energy              =     -34.58467308 Ry
     estimated scf accuracy    <       0.45982713 Ry

     iteration #  3     ecut=    60.00 Ry     beta= 0.70
     Davidson diagonalization with overlap
     ethr =  5.66E-03,  avg # of iterations =  2.0

     negative rho (up, down):  2.366E-03 0.000E+00
 
     Adding external electric field

     Computed dipole along edir(3) : 
        Dipole               -0.7113 Ry au,         -1.8080 Debye
        Dipole field         -0.0004 Ry au, 
 
        Potential amp.        0.0222 Ry
        Total length         28.3431 bohr
 

     total cpu time spent up to now is       42.5 secs

     total energy              =     -34.66611595 Ry
     estimated scf accuracy    <       0.00374079 Ry

     iteration #  4     ecut=    60.00 Ry     beta= 0.70
     Davidson diagonalization with overlap
     ethr =  4.68E-05,  avg # of iterations =  8.0

     negative rho (up, down):  2.360E-03 0.000E+00
 
     Adding external electric field

     Computed dipole along edir(3) : 
        Dipole               -0.7093 Ry au,         -1.8029 Debye
        Dipole field         -0.0004 Ry au, 
 
        Potential amp.        0.0222 Ry
        Total length         28.3431 bohr
 

     total cpu time spent up to now is       55.2 secs

     total energy              =     -34.66712042 Ry
     estimated scf accuracy    <       0.00177742 Ry

     iteration #  5     ecut=    60.00 Ry     beta= 0.70
     Davidson diagonalization with overlap
     ethr =  2.22E-05,  avg # of iterations =  1.0

     negative rho (up, down):  2.400E-03 0.000E+00
 
     Adding external electric field

     Computed dipole along edir(3) : 
        Dipole               -0.7227 Ry au,         -1.8368 Debye
        Dipole field         -0.0004 Ry au, 
 
        Potential amp.        0.0226 Ry
        Total length         28.3431 bohr
 

     total cpu time spent up to now is       65.7 secs

     total energy              =     -34.66697718 Ry
     estimated scf accuracy    <       0.00035354 Ry

     iteration #  6     ecut=    60.00 Ry     beta= 0.70
     Davidson diagonalization with overlap
     ethr =  4.42E-06,  avg # of iterations = 14.0

     negative rho (up, down):  2.397E-03 0.000E+00
 
     Adding external electric field

     Computed dipole along edir(3) : 
        Dipole               -0.7157 Ry au,         -1.8191 Debye
        Dipole field         -0.0004 Ry au, 
 
        Potential amp.        0.0224 Ry
        Total length         28.3431 bohr
 

     total cpu time spent up to now is       77.4 secs

     total energy              =     -34.66709773 Ry
     estimated scf accuracy    <       0.00011160 Ry

     iteration #  7     ecut=    60.00 Ry     beta= 0.70
     Davidson diagonalization with overlap
     ethr =  1.40E-06,  avg # of iterations =  5.0

     negative rho (up, down):  2.404E-03 0.000E+00
 
     Adding external electric field

     Computed dipole along edir(3) : 
        Dipole               -0.7150 Ry au,         -1.8175 Debye
        Dipole field         -0.0004 Ry au, 
 
        Potential amp.        0.0224 Ry
        Total length         28.3431 bohr
 

     total cpu time spent up to now is       87.3 secs

     total energy              =     -34.66711444 Ry
     estimated scf accuracy    <       0.00000123 Ry

     iteration #  8     ecut=    60.00 Ry     beta= 0.70
     Davidson diagonalization with overlap
     ethr =  1.54E-08,  avg # of iterations =  2.0

     negative rho (up, down):  2.405E-03 0.000E+00
 
     Adding external electric field

     Computed dipole along edir(3) : 
        Dipole               -0.7150 Ry au,         -1.8174 Debye
        Dipole field         -0.0004 Ry au, 
 
        Potential amp.        0.0224 Ry
        Total length         28.3431 bohr
 

     total cpu time spent up to now is       97.3 secs

     total energy              =     -34.66711467 Ry
     estimated scf accuracy    <       0.00000010 Ry

     iteration #  9     ecut=    60.00 Ry     beta= 0.70
     Davidson diagonalization with overlap
     ethr =  1.31E-09,  avg # of iterations =  2.0

     negative rho (up, down):  2.406E-03 0.000E+00
 
     Adding external electric field

     Computed dipole along edir(3) : 
        Dipole               -0.7150 Ry au,         -1.8174 Debye
        Dipole field         -0.0004 Ry au, 
 
        Potential amp.        0.0224 Ry
        Total length         28.3431 bohr
 

     total cpu time spent up to now is      107.4 secs

     End of self-consistent calculation

          k = 0.0000 0.0000 0.0000 (178925 PWs)   bands (ev):

   -25.0806 -12.8377  -9.3397  -7.1781  -1.0259  -0.1184   0.2287   0.3602

     the Fermi energy is    -5.3197 ev

!    total energy              =     -34.66711469 Ry
     estimated scf accuracy    <          5.8E-09 Ry
     smearing contrib. (-TS)   =      -0.00000000 Ry
     internal energy E=F+TS    =     -34.66711469 Ry

     The total energy is F=E-TS. E is the sum of the following terms:
     one-electron contribution =     -69.30494019 Ry
     hartree contribution      =      36.13216725 Ry
     xc contribution           =      -8.66686510 Ry
     ewald contribution        =       7.17224127 Ry
     electric field correction =       0.00028209 Ry

     convergence has been achieved in   9 iterations

     negative rho (up, down):  2.406E-03 0.000E+00

     Forces acting on atoms (cartesian axes, Ry/au):

     atom    1 type  1   force =     0.00000173    0.00000012   -0.01702899
     atom    2 type  2   force =    -0.00000098   -0.00741939    0.00851449
     atom    3 type  2   force =    -0.00000074    0.00741927    0.00851450
     The non-local contrib.  to forces
     atom    1 type  1   force =     0.00000360    0.00000011   -2.18309048
     atom    2 type  2   force =    -0.00000006   -0.19020224    0.14071785
     atom    3 type  2   force =    -0.00000009    0.19020226    0.14071791
     The ionic contribution  to forces
     atom    1 type  1   force =     0.00000000    0.00000000    4.31109296
     atom    2 type  2   force =    -0.00000000    2.93265825   -2.15554648
     atom    3 type  2   force =    -0.00000000   -2.93265825   -2.15554648
     The local contribution  to forces
     atom    1 type  1   force =    -0.00000144    0.00000394   -2.16171249
     atom    2 type  2   force =    -0.00000007   -2.74987549    2.02253742
     atom    3 type  2   force =    -0.00000011    2.74987537    2.02253709
     The core correction contribution to forces
     atom    1 type  1   force =    -0.00000005    0.00000001    0.01176148
     atom    2 type  2   force =     0.00000000    0.00000000    0.00000000
     atom    3 type  2   force =     0.00000000    0.00000000    0.00000000
     The Hubbard contrib.    to forces
     atom    1 type  1   force =     0.00000000    0.00000000    0.00000000
     atom    2 type  2   force =     0.00000000    0.00000000    0.00000000
     atom    3 type  2   force =     0.00000000    0.00000000    0.00000000
     The SCF correction term to forces
     atom    1 type  1   force =     0.00000026   -0.00000389    0.00017547
     atom    2 type  2   force =    -0.00000022    0.00000015    0.00000677
     atom    3 type  2   force =     0.00000010   -0.00000006    0.00000704

     Total force =     0.023347     Total SCF correction =     0.000176

     Writing all to output data dir tmpdir/pwscf.save/
 
     init_run     :      7.33s CPU      8.64s WALL (       1 calls)
     electrons    :     82.52s CPU     98.83s WALL (       1 calls)
     forces       :      4.29s CPU      5.14s WALL (       1 calls)

     Called by init_run:
     wfcinit      :      0.44s CPU      0.48s WALL (       1 calls)
     potinit      :      2.14s CPU      2.53s WALL (       1 calls)
     hinit0       :      0.50s CPU      0.61s WALL (       1 calls)

     Called by electrons:
     c_bands      :     14.49s CPU     15.91s WALL (       9 calls)
     sum_band     :     32.35s CPU     37.82s WALL (       9 calls)
     v_of_rho     :     14.57s CPU     17.43s WALL (      10 calls)
     newd         :     19.08s CPU     26.04s WALL (      10 calls)
     mix_rho      :      3.95s CPU      4.29s WALL (       9 calls)

     Called by c_bands:
     init_us_2    :      0.22s CPU      0.22s WALL (      19 calls)
     init_us_2:cp :      0.22s CPU      0.22s WALL (      19 calls)
     cegterg      :     14.07s CPU     15.48s WALL (       9 calls)

     Called by *egterg:
     cdiaghg      :      0.01s CPU      0.02s WALL (      53 calls)
     h_psi        :     12.78s CPU     14.19s WALL (      54 calls)
     s_psi        :      0.20s CPU      0.20s WALL (      54 calls)
     g_psi        :      0.04s CPU      0.04s WALL (      44 calls)

     Called by h_psi:
     h_psi:calbec :      0.18s CPU      0.22s WALL (      54 calls)
     vloc_psi     :     12.31s CPU     13.68s WALL (      54 calls)
     add_vuspsi   :      0.21s CPU      0.22s WALL (      54 calls)

     General routines
     calbec       :      0.25s CPU      0.29s WALL (      67 calls)
     fft          :     13.27s CPU     16.71s WALL (     139 calls)
     ffts         :      0.64s CPU      0.77s WALL (      19 calls)
     fftw         :     10.14s CPU     11.50s WALL (     562 calls)
     interpolate  :      1.48s CPU      1.73s WALL (      10 calls)
 
     Parallel routines
 
     PWSCF        :   1m34.29s CPU   1m52.95s WALL

 
   This run was terminated on:  17: 2:51   8Nov2023            

=------------------------------------------------------------------------------=
   JOB DONE.
=------------------------------------------------------------------------------=
