[0] MPI startup(): I_MPI_TCP_NETMASK variable has been removed from the product, its value is ignored


     Program PWSCF v.7.2 starts on 12Mar2024 at 18:24:29 

     This program is part of the open-source Quantum ESPRESSO suite
     for quantum simulation of materials; please cite
         "P. Giannozzi et al., J. Phys.:Condens. Matter 21 395502 (2009);
         "P. Giannozzi et al., J. Phys.:Condens. Matter 29 465901 (2017);
         "P. Giannozzi et al., J. Chem. Phys. 152 154105 (2020);
          URL http://www.quantum-espresso.org", 
     in publications or presentations arising from this work. More details at
     http://www.quantum-espresso.org/quote

     Parallel version (MPI), running on    16 processors

     MPI processes distributed on     1 nodes
     37684 MiB available memory on the printing compute node when the environment starts
 
     Reading input from espresso.pwi
Warning: card &CELL ignored
Warning: card / ignored

     Current dimensions of program PWSCF are:
     Max number of different atomic species (ntypx) = 10
     Max number of k-points (npk) =  40000
     Max angular momentum in pseudopotentials (lmaxx) =  4
     Presently no symmetry can be used with electric field


     IMPORTANT: XC functional enforced from input :
     Exchange-correlation= VDW-DF2-B86R
                           (   1   4  26   0   2   0   0)
     Any further DFT definition will be discarded
     Please, verify this is what you really want

 
     R & G space division:  proc/nbgrp/npool/nimage =      16
     Subspace diagonalization in iterative solution of the eigenvalue problem:
     a serial algorithm will be used

 
     Parallelization info
     --------------------
     sticks:   dense  smooth     PW     G-vecs:    dense   smooth      PW
     Min          67      34     10                 7115     2515     444
     Max          68      36     11                 7126     2519     463
     Sum        1085     551    167               113933    40273    7201
 
     Using Slab Decomposition
 


     bravais-lattice index     =            0
     lattice parameter (alat)  =       5.6973  a.u.
     unit-cell volume          =     642.1518 (a.u.)^3
     number of atoms/cell      =            4
     number of atomic types    =            2
     number of electrons       =         8.00
     number of Kohn-Sham states=            8
     kinetic-energy cutoff     =      60.0000  Ry
     charge density cutoff     =     480.0000  Ry
     scf convergence threshold =      1.0E-06
     mixing beta               =       0.7000
     number of iterations used =            8  plain     mixing
     Exchange-correlation= VDW-DF2-B86R
                           (   1   4  26   0   2   0   0)

     celldm(1)=   5.697334  celldm(2)=   0.000000  celldm(3)=   0.000000
     celldm(4)=   0.000000  celldm(5)=   0.000000  celldm(6)=   0.000000

     crystal axes: (cart. coord. in units of alat)
               a(1) = (   0.999994  -0.003591   0.000000 )  
               a(2) = (   0.503167   0.875437   0.000000 )  
               a(3) = (   0.000000   0.000000   3.958265 )  

     reciprocal axes: (cart. coord. in units 2 pi/alat)
               b(1) = (  0.997946 -0.573581  0.000000 )  
               b(2) = (  0.004094  1.139933  0.000000 )  
               b(3) = (  0.000000  0.000000  0.252636 )  


     PseudoPot. # 1 for B  read from file:
     /home/krojas/QE/pseudo/b_pbe_v1.4.uspp.F.UPF
     MD5 check sum: cc6de2960df11db49a60e589f9ebb39b
     Pseudo is Ultrasoft + core correction, Zval =  3.0
     Generated by new atomic code, or converted to UPF format
     Using radial grid of  781 points,  4 beta functions with: 
                l(1) =   0
                l(2) =   0
                l(3) =   1
                l(4) =   1
     Q(r) pseudized with  8 coefficients,  rinner =    1.100   1.100   1.100


     PseudoPot. # 2 for H  read from file:
     /home/krojas/QE/pseudo/h_pbe_v1.4.uspp.F.UPF
     MD5 check sum: 761ae9a214b05c3daf00ab9f6b793d6f
     Pseudo is Ultrasoft, Zval =  1.0
     Generated by new atomic code, or converted to UPF format
     Using radial grid of  615 points,  2 beta functions with: 
                l(1) =   0
                l(2) =   0
     Q(r) pseudized with  8 coefficients,  rinner =    0.700

     atomic species   valence    mass     pseudopotential
        B              3.00    10.81000     B ( 1.00)
        H              1.00     1.00800     H ( 1.00)

     No symmetry found



   Cartesian axes

     site n.     atom                  positions (alat units)
         1           B   tau(   1) = (   0.0000000  -0.0033169   1.9791325  )
         2           B   tau(   2) = (   0.5009657   0.2715580   1.9791325  )
         3           H   tau(   3) = (   0.5020846   0.5735104   2.2998349  )
         4           H   tau(   4) = (   0.5020846   0.5735104   1.6584302  )

     number of k points=    74  Gaussian smearing, width (Ry)=  0.0100
                       cart. coord. in units 2pi/alat
        k(    1) = (   0.0000000   0.0000000   0.0000000), wk =   0.0138889
        k(    2) = (   0.0003412   0.0949944   0.0000000), wk =   0.0277778
        k(    3) = (   0.0006823   0.1899889   0.0000000), wk =   0.0277778
        k(    4) = (   0.0010235   0.2849833   0.0000000), wk =   0.0277778
        k(    5) = (   0.0013646   0.3799777   0.0000000), wk =   0.0277778
        k(    6) = (   0.0017058   0.4749722   0.0000000), wk =   0.0277778
        k(    7) = (  -0.0020470  -0.5699666   0.0000000), wk =   0.0138889
        k(    8) = (   0.0831622  -0.0477984   0.0000000), wk =   0.0277778
        k(    9) = (   0.0835034   0.0471960   0.0000000), wk =   0.0277778
        k(   10) = (   0.0838445   0.1421905   0.0000000), wk =   0.0277778
        k(   11) = (   0.0841857   0.2371849   0.0000000), wk =   0.0277778
        k(   12) = (   0.0845269   0.3321793   0.0000000), wk =   0.0277778
        k(   13) = (   0.0848680   0.4271738   0.0000000), wk =   0.0277778
        k(   14) = (   0.0811152  -0.6177650   0.0000000), wk =   0.0277778
        k(   15) = (   0.0814564  -0.5227706   0.0000000), wk =   0.0277778
        k(   16) = (   0.0817976  -0.4277762   0.0000000), wk =   0.0277778
        k(   17) = (   0.0821387  -0.3327817   0.0000000), wk =   0.0277778
        k(   18) = (   0.0824799  -0.2377873   0.0000000), wk =   0.0277778
        k(   19) = (   0.0828210  -0.1427928   0.0000000), wk =   0.0277778
        k(   20) = (   0.1663244  -0.0955968   0.0000000), wk =   0.0277778
        k(   21) = (   0.1666656  -0.0006024   0.0000000), wk =   0.0277778
        k(   22) = (   0.1670067   0.0943921   0.0000000), wk =   0.0277778
        k(   23) = (   0.1673479   0.1893865   0.0000000), wk =   0.0277778
        k(   24) = (   0.1676891   0.2843809   0.0000000), wk =   0.0277778
        k(   25) = (   0.1680302   0.3793754   0.0000000), wk =   0.0277778
        k(   26) = (   0.1642774  -0.6655634   0.0000000), wk =   0.0277778
        k(   27) = (   0.1646186  -0.5705690   0.0000000), wk =   0.0277778
        k(   28) = (   0.1649598  -0.4755746   0.0000000), wk =   0.0277778
        k(   29) = (   0.1653009  -0.3805801   0.0000000), wk =   0.0277778
        k(   30) = (   0.1656421  -0.2855857   0.0000000), wk =   0.0277778
        k(   31) = (   0.1659833  -0.1905913   0.0000000), wk =   0.0277778
        k(   32) = (   0.2494866  -0.1433952   0.0000000), wk =   0.0277778
        k(   33) = (   0.2498278  -0.0484008   0.0000000), wk =   0.0277778
        k(   34) = (   0.2501689   0.0465936   0.0000000), wk =   0.0277778
        k(   35) = (   0.2505101   0.1415881   0.0000000), wk =   0.0277778
        k(   36) = (   0.2508513   0.2365825   0.0000000), wk =   0.0277778
        k(   37) = (   0.2511924   0.3315769   0.0000000), wk =   0.0277778
        k(   38) = (   0.2474397  -0.7133618   0.0000000), wk =   0.0277778
        k(   39) = (   0.2477808  -0.6183674   0.0000000), wk =   0.0277778
        k(   40) = (   0.2481220  -0.5233730   0.0000000), wk =   0.0277778
        k(   41) = (   0.2484631  -0.4283785   0.0000000), wk =   0.0277778
        k(   42) = (   0.2488043  -0.3333841   0.0000000), wk =   0.0277778
        k(   43) = (   0.2491455  -0.2383897   0.0000000), wk =   0.0277778
        k(   44) = (   0.3326488  -0.1911936   0.0000000), wk =   0.0277778
        k(   45) = (   0.3329900  -0.0961992   0.0000000), wk =   0.0277778
        k(   46) = (   0.3333312  -0.0012048   0.0000000), wk =   0.0277778
        k(   47) = (   0.3336723   0.0937897   0.0000000), wk =   0.0277778
        k(   48) = (   0.3340135   0.1887841   0.0000000), wk =   0.0277778
        k(   49) = (   0.3343546   0.2837785   0.0000000), wk =   0.0277778
        k(   50) = (   0.3306019  -0.7611603   0.0000000), wk =   0.0277778
        k(   51) = (   0.3309430  -0.6661658   0.0000000), wk =   0.0277778
        k(   52) = (   0.3312842  -0.5711714   0.0000000), wk =   0.0277778
        k(   53) = (   0.3316253  -0.4761769   0.0000000), wk =   0.0277778
        k(   54) = (   0.3319665  -0.3811825   0.0000000), wk =   0.0277778
        k(   55) = (   0.3323077  -0.2861881   0.0000000), wk =   0.0277778
        k(   56) = (   0.4158110  -0.2389921   0.0000000), wk =   0.0277778
        k(   57) = (   0.4161522  -0.1439976   0.0000000), wk =   0.0277778
        k(   58) = (   0.4164934  -0.0490032   0.0000000), wk =   0.0277778
        k(   59) = (   0.4168345   0.0459913   0.0000000), wk =   0.0277778
        k(   60) = (   0.4171757   0.1409857   0.0000000), wk =   0.0277778
        k(   61) = (   0.4175169   0.2359801   0.0000000), wk =   0.0277778
        k(   62) = (   0.4137641  -0.8089587   0.0000000), wk =   0.0277778
        k(   63) = (   0.4141052  -0.7139642   0.0000000), wk =   0.0277778
        k(   64) = (   0.4144464  -0.6189698   0.0000000), wk =   0.0277778
        k(   65) = (   0.4147876  -0.5239754   0.0000000), wk =   0.0277778
        k(   66) = (   0.4151287  -0.4289809   0.0000000), wk =   0.0277778
        k(   67) = (   0.4154699  -0.3339865   0.0000000), wk =   0.0277778
        k(   68) = (  -0.4989732   0.2867905   0.0000000), wk =   0.0138889
        k(   69) = (  -0.4986321   0.3817849   0.0000000), wk =   0.0277778
        k(   70) = (  -0.4982909   0.4767793   0.0000000), wk =   0.0277778
        k(   71) = (  -0.4979498   0.5717738   0.0000000), wk =   0.0277778
        k(   72) = (  -0.4976086   0.6667682   0.0000000), wk =   0.0277778
        k(   73) = (  -0.4972674   0.7617626   0.0000000), wk =   0.0277778
        k(   74) = (  -0.5010202  -0.2831762   0.0000000), wk =   0.0138889

     Dense  grid:   113933 G-vectors     FFT dimensions: (  40,  45, 160)

     Smooth grid:    40273 G-vectors     FFT dimensions: (  30,  30, 120)

     Estimated max dynamical RAM per process >      13.53 MB

     Estimated total dynamical RAM >     216.40 MB

     Initial potential from superposition of free atoms

     starting charge       7.9994, renormalised to       8.0000

     negative rho (up, down):  1.259E-05 0.000E+00


     %%%%%%%%%%%%%%%%%%%%%%%%%%%%%%%%%%%%%%%%%%%%%%%%%%%%%%%%%%%%%%%%%%%%%%%%
     %                                                                      %
     % You are using vdW-DF, which was implemented by the Thonhauser group. %
     % Please cite the following two papers that made this development      %
     % possible and the two reviews that describe the various versions:     %
     %                                                                      %
     %   T. Thonhauser et al., PRL 115, 136402 (2015).                      %
     %   T. Thonhauser et al., PRB 76, 125112 (2007).                       %
     %   K. Berland et al., Rep. Prog. Phys. 78, 066501 (2015).             %
     %   D.C. Langreth et al., J. Phys.: Condens. Matter 21, 084203 (2009). %
     %                                                                      %
     % If you are calculating stress with vdW-DF, please also cite:         %
     %                                                                      %
     %   R. Sabatini et al., J. Phys.: Condens. Matter 24, 424209 (2012).   %
     %                                                                      %
     %%%%%%%%%%%%%%%%%%%%%%%%%%%%%%%%%%%%%%%%%%%%%%%%%%%%%%%%%%%%%%%%%%%%%%%%

     %%%%%%%%%%%%%%%%%%%%%%%%%%%%%%%%%%%%%%%%%%%%%%%%%%%%%%%%%%%%%%%%%%%%%%%%
     %                                                                      %
     %  vdW-DF NEWS:                                                        %
     %                                                                      %
     %  * vdW-DF3 is now available. DOI: 10.1021/acs.jctc.0c00471           %
     %    use with input_dft = 'vdW-DF3-opt1' or 'vdW-DF3-opt2'             %
     %                                                                      %
     %  * Unscreened and range-separated hybrid vdW-DF-cx functionals       %
     %    DOI: 10.1063/1.4986522 and 10.1088/1361-648X/ac2ad2               %
     %    use with input_dft = 'vdW-DF-cx0'    and 'vdW-DF-ahcx'            %
     %  * Unscreened and range-separated hybrid vdW-DF2-b86r functionals    %
     %    DOI: 10.1063/1.4986522 and DOI: 10.1103/PhysRevX.12.041003        %
     %    use with input_dft = 'vdW-DF2-br0' and 'vdW-DF2-ahbr'             %
     %                                                                      %
     %%%%%%%%%%%%%%%%%%%%%%%%%%%%%%%%%%%%%%%%%%%%%%%%%%%%%%%%%%%%%%%%%%%%%%%%


 
     Adding external electric field

     Computed dipole along edir(3) : 
        Dipole               -0.0000 Ry au,         -0.0000 Debye
        Dipole field         -0.0000 Ry au, 
 
        Potential amp.        0.0000 Ry
        Total length         22.5493 bohr
 
     Starting wfcs are   10 randomized atomic wfcs

     total cpu time spent up to now is       14.3 secs

     Self-consistent Calculation

     iteration #  1     ecut=    60.00 Ry     beta= 0.70
     Davidson diagonalization with overlap
     ethr =  1.00E-02,  avg # of iterations =  3.8

     negative rho (up, down):  1.273E-05 0.000E+00
 
     Adding external electric field

     Computed dipole along edir(3) : 
        Dipole               -0.0001 Ry au,         -0.0003 Debye
        Dipole field         -0.0000 Ry au, 
 
        Potential amp.        0.0001 Ry
        Total length         22.5493 bohr
 

     total cpu time spent up to now is       15.1 secs

     total energy              =     -15.04478287 Ry
     estimated scf accuracy    <       0.33052927 Ry

     iteration #  2     ecut=    60.00 Ry     beta= 0.70
     Davidson diagonalization with overlap
     ethr =  4.13E-03,  avg # of iterations =  3.8

     negative rho (up, down):  2.188E-05 0.000E+00
 
     Adding external electric field

     Computed dipole along edir(3) : 
        Dipole                0.0001 Ry au,          0.0003 Debye
        Dipole field          0.0000 Ry au, 
 
        Potential amp.       -0.0001 Ry
        Total length         22.5493 bohr
 

     total cpu time spent up to now is       15.8 secs

     total energy              =     -15.10066258 Ry
     estimated scf accuracy    <       0.01910224 Ry

     iteration #  3     ecut=    60.00 Ry     beta= 0.70
     Davidson diagonalization with overlap
     ethr =  2.39E-04,  avg # of iterations =  4.9

     negative rho (up, down):  3.115E-05 0.000E+00
 
     Adding external electric field

     Computed dipole along edir(3) : 
        Dipole               -0.0003 Ry au,         -0.0009 Debye
        Dipole field         -0.0000 Ry au, 
 
        Potential amp.        0.0003 Ry
        Total length         22.5493 bohr
 

     total cpu time spent up to now is       16.5 secs

     total energy              =     -15.10403392 Ry
     estimated scf accuracy    <       0.00059303 Ry

     iteration #  4     ecut=    60.00 Ry     beta= 0.70
     Davidson diagonalization with overlap
     ethr =  7.41E-06,  avg # of iterations =  5.7

     negative rho (up, down):  3.301E-05 0.000E+00
 
     Adding external electric field

     Computed dipole along edir(3) : 
        Dipole                0.0008 Ry au,          0.0020 Debye
        Dipole field          0.0000 Ry au, 
 
        Potential amp.       -0.0007 Ry
        Total length         22.5493 bohr
 

     total cpu time spent up to now is       17.3 secs

     total energy              =     -15.10412541 Ry
     estimated scf accuracy    <       0.00000755 Ry

     iteration #  5     ecut=    60.00 Ry     beta= 0.70
     Davidson diagonalization with overlap
     ethr =  9.43E-08,  avg # of iterations =  2.7

     negative rho (up, down):  3.342E-05 0.000E+00
 
     Adding external electric field

     Computed dipole along edir(3) : 
        Dipole               -0.0009 Ry au,         -0.0022 Debye
        Dipole field         -0.0000 Ry au, 
 
        Potential amp.        0.0008 Ry
        Total length         22.5493 bohr
 

     total cpu time spent up to now is       18.0 secs

     total energy              =     -15.10412795 Ry
     estimated scf accuracy    <       0.00000145 Ry

     iteration #  6     ecut=    60.00 Ry     beta= 0.70
     Davidson diagonalization with overlap
     ethr =  1.82E-08,  avg # of iterations =  2.0

     negative rho (up, down):  3.356E-05 0.000E+00
 
     Adding external electric field

     Computed dipole along edir(3) : 
        Dipole                0.0001 Ry au,          0.0002 Debye
        Dipole field          0.0000 Ry au, 
 
        Potential amp.       -0.0001 Ry
        Total length         22.5493 bohr
 

     total cpu time spent up to now is       18.5 secs

     total energy              =     -15.10412825 Ry
     estimated scf accuracy    <       0.00000122 Ry

     iteration #  7     ecut=    60.00 Ry     beta= 0.70
     Davidson diagonalization with overlap
     ethr =  1.53E-08,  avg # of iterations =  1.8

     negative rho (up, down):  3.364E-05 0.000E+00
 
     Adding external electric field

     Computed dipole along edir(3) : 
        Dipole               -0.0002 Ry au,         -0.0005 Debye
        Dipole field         -0.0000 Ry au, 
 
        Potential amp.        0.0002 Ry
        Total length         22.5493 bohr
 

     total cpu time spent up to now is       19.0 secs

     End of self-consistent calculation

          k = 0.0000 0.0000 0.0000 (  5017 PWs)   bands (ev):

   -14.5435  -8.8748  -3.1295  -0.5619   0.5594   1.9316   2.9008   5.7141

          k = 0.0003 0.0950 0.0000 (  4979 PWs)   bands (ev):

   -14.4455  -8.7576  -3.5110  -0.8160   0.6834   2.0723   3.0297   5.8084

          k = 0.0007 0.1900 0.0000 (  4988 PWs)   bands (ev):

   -14.1564  -8.4115  -4.4879  -1.3954   1.0691   2.4751   3.4221   3.9815

          k = 0.0010 0.2850 0.0000 (  5020 PWs)   bands (ev):

   -13.6950  -7.8568  -5.7425  -2.0216   1.7180   1.9141   3.3029   4.0515

          k = 0.0014 0.3800 0.0000 (  5038 PWs)   bands (ev):

   -13.1083  -7.1458  -7.0086  -2.5347   0.2048   2.5865   4.2664   4.6555

          k = 0.0017 0.4750 0.0000 (  5038 PWs)   bands (ev):

   -12.5215  -8.0407  -6.4239  -2.8623  -1.1438   3.4694   4.9377   5.5244

          k =-0.0020-0.5700 0.0000 (  5036 PWs)   bands (ev):

   -12.2383  -8.4778  -6.0686  -2.9744  -1.7106   3.8072   5.6354   6.1158

          k = 0.0832-0.0478 0.0000 (  5007 PWs)   bands (ev):

   -14.4455  -8.7746  -3.4037  -0.9551   0.6959   2.0724   3.0429   5.7567

          k = 0.0835 0.0472 0.0000 (  5007 PWs)   bands (ev):

   -14.4455  -8.7746  -3.4038  -0.9549   0.6959   2.0724   3.0429   5.7575

          k = 0.0838 0.1422 0.0000 (  5003 PWs)   bands (ev):

   -14.2522  -8.5446  -4.0854  -1.3707   0.9508   2.3462   3.3052   4.8614

          k = 0.0842 0.2372 0.0000 (  5010 PWs)   bands (ev):

   -13.8768  -8.0971  -5.1711  -2.0204   1.4734   2.6168   3.2189   3.8334

          k = 0.0845 0.3322 0.0000 (  5029 PWs)   bands (ev):

   -13.3500  -7.4659  -6.3949  -2.6487   1.0381   2.2497   3.8474   4.5722

          k = 0.0849 0.4272 0.0000 (  5030 PWs)   bands (ev):

   -12.7488  -7.5306  -6.7395  -3.1101  -0.4790   3.2065   4.9562   5.1506

          k = 0.0811-0.6178 0.0000 (  5055 PWs)   bands (ev):

   -12.2752  -8.2907  -6.1589  -3.3494  -1.4651   4.0082   5.5748   6.2853

          k = 0.0815-0.5228 0.0000 (  5055 PWs)   bands (ev):

   -12.2752  -8.2907  -6.1589  -3.3494  -1.4651   4.0082   5.5749   6.2850

          k = 0.0818-0.4278 0.0000 (  5030 PWs)   bands (ev):

   -12.7488  -7.5306  -6.7395  -3.1101  -0.4790   3.2065   4.9562   5.1505

          k = 0.0821-0.3328 0.0000 (  5029 PWs)   bands (ev):

   -13.3499  -7.4659  -6.3948  -2.6488   1.0382   2.2497   3.8474   4.5722

          k = 0.0825-0.2378 0.0000 (  5010 PWs)   bands (ev):

   -13.8768  -8.0971  -5.1710  -2.0206   1.4734   2.6169   3.2190   3.8334

          k = 0.0828-0.1428 0.0000 (  5003 PWs)   bands (ev):

   -14.2522  -8.5446  -4.0851  -1.3710   0.9508   2.3463   3.3052   4.8616

          k = 0.1663-0.0956 0.0000 (  5007 PWs)   bands (ev):

   -14.1578  -8.4841  -4.1485  -1.8367   1.1106   2.4830   3.4718   5.3283

          k = 0.1667-0.0006 0.0000 (  4991 PWs)   bands (ev):

   -14.2526  -8.5950  -3.8008  -1.7361   0.9815   2.3522   3.3393   6.0954

          k = 0.1670 0.0944 0.0000 (  5007 PWs)   bands (ev):

   -14.1578  -8.4841  -4.1489  -1.8361   1.1106   2.4829   3.4717   5.3277

          k = 0.1673 0.1894 0.0000 (  5031 PWs)   bands (ev):

   -13.8792  -8.1584  -4.9538  -2.3013   1.5023   2.7826   3.7269   3.8719

          k = 0.1677 0.2844 0.0000 (  5037 PWs)   bands (ev):

   -13.4380  -7.6419  -5.9406  -3.0348   1.7897   2.1601   3.7427   4.5419

          k = 0.1680 0.3794 0.0000 (  5046 PWs)   bands (ev):

   -12.8858  -6.9945  -6.9583  -3.7120   0.3182   3.0569   4.6650   5.4192

          k = 0.1643-0.6656 0.0000 (  5071 PWs)   bands (ev):

   -12.3494  -7.8133  -6.3641  -4.1508  -0.8349   4.0829   5.7947   6.1380

          k = 0.1646-0.5706 0.0000 (  5067 PWs)   bands (ev):

   -12.1000  -8.1766  -6.0702  -4.2995  -1.3064   4.6979   6.5116   6.8554

          k = 0.1650-0.4756 0.0000 (  5071 PWs)   bands (ev):

   -12.3494  -7.8133  -6.3641  -4.1509  -0.8347   4.0829   5.7948   6.1381

          k = 0.1653-0.3806 0.0000 (  5048 PWs)   bands (ev):

   -12.8857  -6.9945  -6.9582  -3.7123   0.3185   3.0570   4.6650   5.4191

          k = 0.1656-0.2856 0.0000 (  5037 PWs)   bands (ev):

   -13.4380  -7.6419  -5.9403  -3.0352   1.7900   2.1602   3.7428   4.5420

          k = 0.1660-0.1906 0.0000 (  5031 PWs)   bands (ev):

   -13.8792  -8.1584  -4.9534  -2.3020   1.5024   2.7826   3.7272   3.8719

          k = 0.2495-0.1434 0.0000 (  5031 PWs)   bands (ev):

   -13.7035  -8.0386  -5.2066  -2.7305   1.8046   2.9919   4.0043   4.1839

          k = 0.2498-0.0484 0.0000 (  5026 PWs)   bands (ev):

   -13.8811  -8.2391  -4.5970  -2.7491   1.5421   2.8893   3.9193   5.1513

          k = 0.2502 0.0466 0.0000 (  5026 PWs)   bands (ev):

   -13.8812  -8.2391  -4.5974  -2.7486   1.5421   2.8893   3.9192   5.1507

          k = 0.2505 0.1416 0.0000 (  5031 PWs)   bands (ev):

   -13.7036  -8.0386  -5.2072  -2.7296   1.8046   2.9917   4.0037   4.1836

          k = 0.2509 0.2366 0.0000 (  5038 PWs)   bands (ev):

   -13.3636  -7.6555  -5.9644  -3.2043   2.1926   2.3283   3.9619   4.7087

          k = 0.2512 0.3316 0.0000 (  5053 PWs)   bands (ev):

   -12.9002  -7.1352  -6.6897  -4.0327   0.9784   3.1058   4.6940   5.5139

          k = 0.2474-0.7134 0.0000 (  5056 PWs)   bands (ev):

   -12.4000  -7.3216  -6.5770  -4.8027  -0.0672   4.0821   5.5609   6.4690

          k = 0.2478-0.6184 0.0000 (  5062 PWs)   bands (ev):

   -12.0389  -7.7406  -6.1770  -5.2381  -0.7152   5.0210   5.9310   6.9706

          k = 0.2481-0.5234 0.0000 (  5062 PWs)   bands (ev):

   -12.0388  -7.7405  -6.1770  -5.2382  -0.7150   5.0210   5.9309   6.9708

          k = 0.2485-0.4284 0.0000 (  5056 PWs)   bands (ev):

   -12.4000  -7.3213  -6.5770  -4.8031  -0.0669   4.0822   5.5608   6.4692

          k = 0.2488-0.3334 0.0000 (  5053 PWs)   bands (ev):

   -12.9001  -7.1352  -6.6893  -4.0333   0.9789   3.1059   4.6941   5.5139

          k = 0.2491-0.2384 0.0000 (  5038 PWs)   bands (ev):

   -13.3635  -7.6555  -5.9638  -3.2052   2.1931   2.3284   3.9620   4.7087

          k = 0.3326-0.1912 0.0000 (  5036 PWs)   bands (ev):

   -13.1391  -7.5139  -6.3612  -3.3980   2.2020   2.7630   4.4022   4.7829

          k = 0.3330-0.0962 0.0000 (  5043 PWs)   bands (ev):

   -13.3683  -7.7564  -5.6721  -3.5679   2.3732   3.1744   4.0694   4.7774

          k = 0.3333-0.0012 0.0000 (  5043 PWs)   bands (ev):

   -13.4481  -7.8410  -5.2477  -3.8659   2.2409   3.5350   4.2064   4.6438

          k = 0.3337 0.0938 0.0000 (  5043 PWs)   bands (ev):

   -13.3684  -7.7564  -5.6727  -3.5670   2.3731   3.1740   4.0692   4.7776

          k = 0.3340 0.1888 0.0000 (  5036 PWs)   bands (ev):

   -13.1392  -7.5139  -6.3619  -3.3970   2.2013   2.7629   4.4021   4.7839

          k = 0.3344 0.2838 0.0000 (  5056 PWs)   bands (ev):

   -12.7939  -7.1503  -6.9376  -3.8580   1.2676   3.3976   5.0469   5.1632

          k = 0.3306-0.7612 0.0000 (  5051 PWs)   bands (ev):

   -12.4011  -7.2836  -6.7381  -4.7491   0.5342   4.2423   5.7281   6.3485

          k = 0.3309-0.6662 0.0000 (  5056 PWs)   bands (ev):

   -12.0742  -7.3518  -6.3941  -5.6428   0.0562   5.1228   5.5179   7.1222

          k = 0.3313-0.5712 0.0000 (  5049 PWs)   bands (ev):

   -11.9444  -7.2796  -6.2565  -6.0746  -0.1130   5.2573   5.5377   7.5195

          k = 0.3316-0.4762 0.0000 (  5056 PWs)   bands (ev):

   -12.0741  -7.3513  -6.3941  -5.6434   0.0565   5.1229   5.5176   7.1227

          k = 0.3320-0.3812 0.0000 (  5051 PWs)   bands (ev):

   -12.4010  -7.2831  -6.7381  -4.7499   0.5348   4.2424   5.7280   6.3473

          k = 0.3323-0.2862 0.0000 (  5056 PWs)   bands (ev):

   -12.7938  -7.1503  -6.9370  -3.8589   1.2683   3.3978   5.0470   5.1621

          k = 0.4158-0.2390 0.0000 (  5035 PWs)   bands (ev):

   -12.5993  -7.3183  -7.0537  -3.7958   1.2306   3.9277   4.5894   5.6253

          k = 0.4162-0.1440 0.0000 (  5059 PWs)   bands (ev):

   -12.8014  -7.2449  -6.7661  -4.0698   1.9524   3.4461   4.9595   5.2130

          k = 0.4165-0.0490 0.0000 (  5060 PWs)   bands (ev):

   -12.9175  -7.3542  -6.0914  -4.7193   2.7717   3.1912   4.3779   5.6314

          k = 0.4168 0.0460 0.0000 (  5060 PWs)   bands (ev):

   -12.9175  -7.3542  -6.0919  -4.7186   2.7712   3.1912   4.3780   5.6312

          k = 0.4172 0.1410 0.0000 (  5059 PWs)   bands (ev):

   -12.8015  -7.2449  -6.7668  -4.0688   1.9516   3.4460   4.9595   5.2142

          k = 0.4175 0.2360 0.0000 (  5035 PWs)   bands (ev):

   -12.5994  -7.3189  -7.0536  -3.7948   1.2298   3.9276   4.5904   5.6252

          k = 0.4138-0.8090 0.0000 (  5051 PWs)   bands (ev):

   -12.3712  -7.5711  -6.8317  -4.2134   0.8012   4.5599   5.0635   6.3424

          k = 0.4141-0.7140 0.0000 (  5056 PWs)   bands (ev):

   -12.1888  -7.4419  -6.6418  -5.1020   0.6822   5.0916   5.7650   6.3134

          k = 0.4144-0.6190 0.0000 (  5053 PWs)   bands (ev):

   -12.0954  -6.9268  -6.5347  -6.0816   0.7421   4.9524   5.1980   7.2542

          k = 0.4148-0.5240 0.0000 (  5053 PWs)   bands (ev):

   -12.0954  -6.9262  -6.5348  -6.0823   0.7424   4.9521   5.1980   7.2546

          k = 0.4151-0.4290 0.0000 (  5056 PWs)   bands (ev):

   -12.1887  -7.4413  -6.6419  -5.1029   0.6829   5.0917   5.7645   6.3123

          k = 0.4155-0.3340 0.0000 (  5051 PWs)   bands (ev):

   -12.3711  -7.5705  -6.8318  -4.2143   0.8020   4.5600   5.0625   6.3424

          k =-0.4990 0.2868 0.0000 (  5038 PWs)   bands (ev):

   -12.3532  -7.7131  -6.8618  -3.9276   0.8551   4.5035   4.8281   6.2570

          k =-0.4986 0.3818 0.0000 (  5049 PWs)   bands (ev):

   -12.3757  -7.5148  -6.8732  -4.2815   1.0367   4.6088   5.0513   6.1720

          k =-0.4983 0.4768 0.0000 (  5054 PWs)   bands (ev):

   -12.4191  -6.9678  -6.8957  -5.1007   1.4875   4.3207   5.1668   6.3958

          k =-0.4979 0.5718 0.0000 (  5075 PWs)   bands (ev):

   -12.4400  -6.9068  -6.3752  -5.8143   1.7945   4.2106   4.6319   6.6838

          k =-0.4976 0.6668 0.0000 (  5054 PWs)   bands (ev):

   -12.4191  -6.9685  -6.8957  -5.0999   1.4869   4.3206   5.1671   6.3967

          k =-0.4973 0.7618 0.0000 (  5049 PWs)   bands (ev):

   -12.3758  -7.5154  -6.8732  -4.2805   1.0359   4.6087   5.0524   6.1720

          k =-0.5010-0.2832 0.0000 (  5038 PWs)   bands (ev):

   -12.3533  -7.7136  -6.8618  -3.9265   0.8542   4.5045   4.8280   6.2566

     the Fermi energy is    -1.2062 ev

!    total energy              =     -15.10412847 Ry
     estimated scf accuracy    <       0.00000001 Ry
     smearing contrib. (-TS)   =      -0.00016609 Ry
     internal energy E=F+TS    =     -15.10396238 Ry

     The total energy is F=E-TS. E is the sum of the following terms:
     one-electron contribution =     -65.64669365 Ry
     hartree contribution      =      34.38456399 Ry
     xc contribution           =      -7.34055289 Ry
     ewald contribution        =      23.49872016 Ry
     electric field correction =       0.00000000 Ry

     convergence has been achieved in   7 iterations

     negative rho (up, down):  3.364E-05 0.000E+00

     Forces acting on atoms (cartesian axes, Ry/au):

     atom    1 type  1   force =    -0.00001502    0.01333049   -0.00000157
     atom    2 type  1   force =     0.00002891   -0.01026497   -0.00000197
     atom    3 type  2   force =    -0.00000694   -0.00153264    0.00221498
     atom    4 type  2   force =    -0.00000695   -0.00153288   -0.00221144
     The non-local contrib.  to forces
     atom    1 type  1   force =    -0.00131339   -0.34243145   -0.00001464
     atom    2 type  1   force =     0.00134700    0.34787264   -0.00001479
     atom    3 type  2   force =    -0.00000286    0.00055853   -0.11528571
     atom    4 type  2   force =    -0.00000289    0.00055851    0.11529055
     The ionic contribution  to forces
     atom    1 type  1   force =     0.00248660    0.72381384    0.00000000
     atom    2 type  1   force =    -0.00251141   -0.71301703    0.00000000
     atom    3 type  2   force =     0.00001240   -0.00539841    2.58604343
     atom    4 type  2   force =     0.00001240   -0.00539841   -2.58604343
     The local contribution  to forces
     atom    1 type  1   force =    -0.00121680   -0.37529825    0.00011774
     atom    2 type  1   force =     0.00122287    0.36239449    0.00011751
     atom    3 type  2   force =    -0.00001645    0.00330988   -2.46851947
     atom    4 type  2   force =    -0.00001652    0.00330964    2.46855586
     The core correction contribution to forces
     atom    1 type  1   force =     0.00002876    0.00722344    0.00000029
     atom    2 type  1   force =    -0.00002983   -0.00749356    0.00000029
     atom    3 type  2   force =     0.00000000    0.00000000    0.00000000
     atom    4 type  2   force =     0.00000000    0.00000000    0.00000000
     The Hubbard contrib.    to forces
     atom    1 type  1   force =     0.00000000    0.00000000    0.00000000
     atom    2 type  1   force =     0.00000000    0.00000000    0.00000000
     atom    3 type  2   force =     0.00000000    0.00000000    0.00000000
     atom    4 type  2   force =     0.00000000    0.00000000    0.00000000
     The SCF correction term to forces
     atom    1 type  1   force =    -0.00000019    0.00002318   -0.00012893
     atom    2 type  1   force =     0.00000026   -0.00002125   -0.00012894
     atom    3 type  2   force =    -0.00000004   -0.00000237   -0.00003277
     atom    4 type  2   force =     0.00000005   -0.00000236   -0.00002392

     Total force =     0.017250     Total SCF correction =     0.000189

     Writing all to output data dir ./TMPDIR/pwscf.save/
 
     init_run     :     14.10s CPU     14.20s WALL (       1 calls)
     electrons    :      4.49s CPU      4.78s WALL (       1 calls)
     forces       :      0.19s CPU      0.20s WALL (       1 calls)

     Called by init_run:
     wfcinit      :      0.20s CPU      0.26s WALL (       1 calls)
     potinit      :     13.71s CPU     13.75s WALL (       1 calls)
     hinit0       :      0.16s CPU      0.16s WALL (       1 calls)

     Called by electrons:
     c_bands      :      3.48s CPU      3.60s WALL (       7 calls)
     sum_band     :      0.58s CPU      0.65s WALL (       7 calls)
     v_of_rho     :     14.03s CPU     14.11s WALL (       8 calls)
     newd         :      0.04s CPU      0.05s WALL (       8 calls)
     mix_rho      :      0.02s CPU      0.02s WALL (       7 calls)
     vdW_kernel   :     13.60s CPU     13.61s WALL (       1 calls)

     Called by c_bands:
     init_us_2    :      0.09s CPU      0.10s WALL (    1184 calls)
     init_us_2:cp :      0.09s CPU      0.09s WALL (    1184 calls)
     cegterg      :      3.31s CPU      3.42s WALL (     518 calls)

     Called by *egterg:
     cdiaghg      :      0.23s CPU      0.24s WALL (    2342 calls)
     h_psi        :      2.82s CPU      2.91s WALL (    2416 calls)
     s_psi        :      0.06s CPU      0.07s WALL (    2416 calls)
     g_psi        :      0.03s CPU      0.03s WALL (    1824 calls)

     Called by h_psi:
     h_psi:calbec :      0.13s CPU      0.13s WALL (    2416 calls)
     vloc_psi     :      2.60s CPU      2.68s WALL (    2416 calls)
     add_vuspsi   :      0.07s CPU      0.07s WALL (    2416 calls)

     General routines
     calbec       :      0.17s CPU      0.18s WALL (    3230 calls)
     fft          :      0.28s CPU      0.30s WALL (     563 calls)
     ffts         :      0.00s CPU      0.00s WALL (      15 calls)
     fftw         :      2.63s CPU      2.72s WALL (   29438 calls)
     interpolate  :      0.00s CPU      0.00s WALL (       8 calls)
 
     Parallel routines
 
     PWSCF        :     18.92s CPU     19.98s WALL

 
   This run was terminated on:  18:24:49  12Mar2024            

=------------------------------------------------------------------------------=
   JOB DONE.
=------------------------------------------------------------------------------=
