
     Program PWSCF v.7.2 starts on  8Nov2023 at 16:45:34 

     This program is part of the open-source Quantum ESPRESSO suite
     for quantum simulation of materials; please cite
         "P. Giannozzi et al., J. Phys.:Condens. Matter 21 395502 (2009);
         "P. Giannozzi et al., J. Phys.:Condens. Matter 29 465901 (2017);
         "P. Giannozzi et al., J. Chem. Phys. 152 154105 (2020);
          URL http://www.quantum-espresso.org", 
     in publications or presentations arising from this work. More details at
     http://www.quantum-espresso.org/quote

     Parallel version (MPI), running on     4 processors

     MPI processes distributed on     1 nodes
     9318 MiB available memory on the printing compute node when the environment starts
 
     Reading input from espresso.pwi
Warning: card &CELL ignored
Warning: card / ignored

     Current dimensions of program PWSCF are:
     Max number of different atomic species (ntypx) = 10
     Max number of k-points (npk) =  40000
     Max angular momentum in pseudopotentials (lmaxx) =  4
     Presently no symmetry can be used with electric field

 
     R & G space division:  proc/nbgrp/npool/nimage =       4
     Subspace diagonalization in iterative solution of the eigenvalue problem:
     a serial algorithm will be used

 
     Parallelization info
     --------------------
     sticks:   dense  smooth     PW     G-vecs:    dense   smooth      PW
     Min        7666    3832    958              1011072   357408   44730
     Max        7670    3833    959              1011073   357411   44733
     Sum       30669   15329   3833              4044289  1429635  178925
 
     Using Slab Decomposition
 


     bravais-lattice index     =            0
     lattice parameter (alat)  =      28.3459  a.u.
     unit-cell volume          =   22775.6289 (a.u.)^3
     number of atoms/cell      =            3
     number of atomic types    =            2
     number of electrons       =         8.00
     number of Kohn-Sham states=            8
     kinetic-energy cutoff     =      60.0000  Ry
     charge density cutoff     =     480.0000  Ry
     scf convergence threshold =      1.0E-07
     mixing beta               =       0.7000
     number of iterations used =            8  plain     mixing
     Exchange-correlation=  SLA  PW   PBX  PBC
                           (   1   4   3   4   0   0   0)

     celldm(1)=  28.345892  celldm(2)=   0.000000  celldm(3)=   0.000000
     celldm(4)=   0.000000  celldm(5)=   0.000000  celldm(6)=   0.000000

     crystal axes: (cart. coord. in units of alat)
               a(1) = (   1.000000   0.000000   0.000000 )  
               a(2) = (   0.000000   1.000000   0.000000 )  
               a(3) = (   0.000000   0.000000   1.000000 )  

     reciprocal axes: (cart. coord. in units 2 pi/alat)
               b(1) = (  1.000000  0.000000  0.000000 )  
               b(2) = (  0.000000  1.000000  0.000000 )  
               b(3) = (  0.000000  0.000000  1.000000 )  


     PseudoPot. # 1 for O  read from file:
     /home/krojas/github_files/MatSciToolKit/tutorial/example_ase_ir_2/ir_1/o_pbe_v1.2.uspp.F.UPF
     MD5 check sum: 734c27235a0248c51dbae37a1fbe46ec
     Pseudo is Ultrasoft + core correction, Zval =  6.0
     Generated by new atomic code, or converted to UPF format
     Using radial grid of  737 points,  5 beta functions with: 
                l(1) =   0
                l(2) =   0
                l(3) =   1
                l(4) =   1
                l(5) =   2
     Q(r) pseudized with  8 coefficients,  rinner =    0.900   0.900   0.900
                                                       0.900   0.900

     PseudoPot. # 2 for H  read from file:
     /home/krojas/github_files/MatSciToolKit/tutorial/example_ase_ir_2/ir_1/h_pbe_v1.4.uspp.F.UPF
     MD5 check sum: 761ae9a214b05c3daf00ab9f6b793d6f
     Pseudo is Ultrasoft, Zval =  1.0
     Generated by new atomic code, or converted to UPF format
     Using radial grid of  615 points,  2 beta functions with: 
                l(1) =   0
                l(2) =   0
     Q(r) pseudized with  8 coefficients,  rinner =    0.700

     atomic species   valence    mass     pseudopotential
        O              6.00    15.99900     O ( 1.00)
        H              1.00     1.00800     H ( 1.00)

     No symmetry found



   Cartesian axes

     site n.     atom                  positions (alat units)
         1           O   tau(   1) = (   0.5000000   0.4993333   0.5201804  )
         2           H   tau(   2) = (   0.5000000   0.5513479   0.4798196  )
         3           H   tau(   3) = (   0.5000000   0.4486521   0.4798196  )

     number of k points=     1  Gaussian smearing, width (Ry)=  0.0100
                       cart. coord. in units 2pi/alat
        k(    1) = (   0.0000000   0.0000000   0.0000000), wk =   2.0000000

     Dense  grid:  4044289 G-vectors     FFT dimensions: ( 200, 200, 200)

     Smooth grid:  1429635 G-vectors     FFT dimensions: ( 144, 144, 144)

     Estimated max dynamical RAM per process >       2.25 GB

     Estimated total dynamical RAM >       9.02 GB

     Initial potential from superposition of free atoms

     starting charge       8.0000, renormalised to       8.0000

     negative rho (up, down):  5.057E-04 0.000E+00
 
     Adding external electric field

     Computed dipole along edir(3) : 
        Dipole               -0.0000 Ry au,         -0.0000 Debye
        Dipole field         -0.0000 Ry au, 
 
        Potential amp.        0.0000 Ry
        Total length         28.3431 bohr
 
     Starting wfcs are    6 randomized atomic wfcs +    2 random wfcs

     total cpu time spent up to now is        8.2 secs

     per-process dynamical memory:   488.9 Mb

     Self-consistent Calculation

     iteration #  1     ecut=    60.00 Ry     beta= 0.70
     Davidson diagonalization with overlap
     ethr =  1.00E-02,  avg # of iterations =  8.0

     negative rho (up, down):  1.823E-03 0.000E+00
 
     Adding external electric field

     Computed dipole along edir(3) : 
        Dipole               -0.7976 Ry au,         -2.0274 Debye
        Dipole field         -0.0004 Ry au, 
 
        Potential amp.        0.0249 Ry
        Total length         28.3431 bohr
 

     total cpu time spent up to now is       19.2 secs

     total energy              =     -34.47304163 Ry
     estimated scf accuracy    <       0.45783491 Ry

     iteration #  2     ecut=    60.00 Ry     beta= 0.70
     Davidson diagonalization with overlap
     ethr =  5.72E-03,  avg # of iterations =  2.0

     negative rho (up, down):  2.092E-03 0.000E+00
 
     Adding external electric field

     Computed dipole along edir(3) : 
        Dipole               -0.5814 Ry au,         -1.4777 Debye
        Dipole field         -0.0003 Ry au, 
 
        Potential amp.        0.0182 Ry
        Total length         28.3431 bohr
 

     total cpu time spent up to now is       29.4 secs

     total energy              =     -34.58576576 Ry
     estimated scf accuracy    <       0.45325100 Ry

     iteration #  3     ecut=    60.00 Ry     beta= 0.70
     Davidson diagonalization with overlap
     ethr =  5.67E-03,  avg # of iterations =  2.0

     negative rho (up, down):  2.375E-03 0.000E+00
 
     Adding external electric field

     Computed dipole along edir(3) : 
        Dipole               -0.7052 Ry au,         -1.7924 Debye
        Dipole field         -0.0004 Ry au, 
 
        Potential amp.        0.0221 Ry
        Total length         28.3431 bohr
 

     total cpu time spent up to now is       39.5 secs

     total energy              =     -34.66604186 Ry
     estimated scf accuracy    <       0.00373326 Ry

     iteration #  4     ecut=    60.00 Ry     beta= 0.70
     Davidson diagonalization with overlap
     ethr =  4.67E-05,  avg # of iterations =  8.0

     negative rho (up, down):  2.369E-03 0.000E+00
 
     Adding external electric field

     Computed dipole along edir(3) : 
        Dipole               -0.7034 Ry au,         -1.7878 Debye
        Dipole field         -0.0004 Ry au, 
 
        Potential amp.        0.0220 Ry
        Total length         28.3431 bohr
 

     total cpu time spent up to now is       50.8 secs

     total energy              =     -34.66704744 Ry
     estimated scf accuracy    <       0.00176603 Ry

     iteration #  5     ecut=    60.00 Ry     beta= 0.70
     Davidson diagonalization with overlap
     ethr =  2.21E-05,  avg # of iterations =  1.0

     negative rho (up, down):  2.410E-03 0.000E+00
 
     Adding external electric field

     Computed dipole along edir(3) : 
        Dipole               -0.7168 Ry au,         -1.8218 Debye
        Dipole field         -0.0004 Ry au, 
 
        Potential amp.        0.0224 Ry
        Total length         28.3431 bohr
 

     total cpu time spent up to now is       60.4 secs

     total energy              =     -34.66690363 Ry
     estimated scf accuracy    <       0.00035136 Ry

     iteration #  6     ecut=    60.00 Ry     beta= 0.70
     Davidson diagonalization with overlap
     ethr =  4.39E-06,  avg # of iterations = 16.0

     negative rho (up, down):  2.407E-03 0.000E+00
 
     Adding external electric field

     Computed dipole along edir(3) : 
        Dipole               -0.7097 Ry au,         -1.8039 Debye
        Dipole field         -0.0004 Ry au, 
 
        Potential amp.        0.0222 Ry
        Total length         28.3431 bohr
 

     total cpu time spent up to now is       71.7 secs

     total energy              =     -34.66702263 Ry
     estimated scf accuracy    <       0.00011472 Ry

     iteration #  7     ecut=    60.00 Ry     beta= 0.70
     Davidson diagonalization with overlap
     ethr =  1.43E-06,  avg # of iterations =  5.0

     negative rho (up, down):  2.414E-03 0.000E+00
 
     Adding external electric field

     Computed dipole along edir(3) : 
        Dipole               -0.7092 Ry au,         -1.8026 Debye
        Dipole field         -0.0004 Ry au, 
 
        Potential amp.        0.0222 Ry
        Total length         28.3431 bohr
 

     total cpu time spent up to now is       81.6 secs

     total energy              =     -34.66704077 Ry
     estimated scf accuracy    <       0.00000099 Ry

     iteration #  8     ecut=    60.00 Ry     beta= 0.70
     Davidson diagonalization with overlap
     ethr =  1.24E-08,  avg # of iterations =  2.0

     negative rho (up, down):  2.415E-03 0.000E+00
 
     Adding external electric field

     Computed dipole along edir(3) : 
        Dipole               -0.7091 Ry au,         -1.8023 Debye
        Dipole field         -0.0004 Ry au, 
 
        Potential amp.        0.0222 Ry
        Total length         28.3431 bohr
 

     total cpu time spent up to now is       91.4 secs

     total energy              =     -34.66704089 Ry
     estimated scf accuracy    <       0.00000020 Ry

     iteration #  9     ecut=    60.00 Ry     beta= 0.70
     Davidson diagonalization with overlap
     ethr =  2.46E-09,  avg # of iterations =  2.0

     negative rho (up, down):  2.415E-03 0.000E+00
 
     Adding external electric field

     Computed dipole along edir(3) : 
        Dipole               -0.7091 Ry au,         -1.8023 Debye
        Dipole field         -0.0004 Ry au, 
 
        Potential amp.        0.0222 Ry
        Total length         28.3431 bohr
 

     total cpu time spent up to now is      100.6 secs

     End of self-consistent calculation

          k = 0.0000 0.0000 0.0000 (178925 PWs)   bands (ev):

   -25.1335 -12.9360  -9.3037  -7.1873  -1.0059  -0.1160   0.2331   0.3602

     the Fermi energy is    -5.3330 ev

!    total energy              =     -34.66704091 Ry
     estimated scf accuracy    <          9.3E-09 Ry
     smearing contrib. (-TS)   =      -0.00000000 Ry
     internal energy E=F+TS    =     -34.66704091 Ry

     The total energy is F=E-TS. E is the sum of the following terms:
     one-electron contribution =     -69.44291954 Ry
     hartree contribution      =      36.19921276 Ry
     xc contribution           =      -8.67800669 Ry
     ewald contribution        =       7.25439515 Ry
     electric field correction =       0.00027740 Ry

     convergence has been achieved in   9 iterations

     negative rho (up, down):  2.415E-03 0.000E+00

     Forces acting on atoms (cartesian axes, Ry/au):

     atom    1 type  1   force =     0.00000085    0.02512469    0.00043300
     atom    2 type  2   force =     0.00000029   -0.01220738    0.00966310
     atom    3 type  2   force =    -0.00000113   -0.01291731   -0.01009609
     The non-local contrib.  to forces
     atom    1 type  1   force =     0.00000260    0.00481050   -2.17650330
     atom    2 type  2   force =    -0.00000002   -0.19158510    0.13698594
     atom    3 type  2   force =    -0.00000043    0.19888485    0.14650460
     The ionic contribution  to forces
     atom    1 type  1   force =     0.00000000    0.06114147    4.32372813
     atom    2 type  2   force =     0.00000000    2.95382380   -2.10976797
     atom    3 type  2   force =     0.00000000   -3.01496527   -2.21396016
     The local contribution  to forces
     atom    1 type  1   force =     0.00000705   -0.04059917   -2.16332673
     atom    2 type  2   force =     0.00000041   -2.77444453    1.98163949
     atom    3 type  2   force =    -0.00000074    2.80315853    2.05655290
     The core correction contribution to forces
     atom    1 type  1   force =    -0.00000000   -0.00024055    0.01161162
     atom    2 type  2   force =     0.00000000    0.00000000    0.00000000
     atom    3 type  2   force =     0.00000000    0.00000000    0.00000000
     The Hubbard contrib.    to forces
     atom    1 type  1   force =     0.00000000    0.00000000    0.00000000
     atom    2 type  2   force =     0.00000000    0.00000000    0.00000000
     atom    3 type  2   force =     0.00000000    0.00000000    0.00000000
     The SCF correction term to forces
     atom    1 type  1   force =    -0.00000935    0.00001192    0.00021727
     atom    2 type  2   force =    -0.00000065   -0.00000206    0.00001187
     atom    3 type  2   force =    -0.00000051    0.00000407    0.00001280

     Total force =     0.033803     Total SCF correction =     0.000219

     Writing all to output data dir tmpdir/pwscf.save/
 
     init_run     :      6.57s CPU      8.08s WALL (       1 calls)
     electrons    :     76.84s CPU     92.61s WALL (       1 calls)
     forces       :      3.86s CPU      4.90s WALL (       1 calls)

     Called by init_run:
     wfcinit      :      0.43s CPU      0.47s WALL (       1 calls)
     potinit      :      1.78s CPU      2.20s WALL (       1 calls)
     hinit0       :      0.43s CPU      0.58s WALL (       1 calls)

     Called by electrons:
     c_bands      :     13.25s CPU     14.63s WALL (       9 calls)
     sum_band     :     29.96s CPU     35.17s WALL (       9 calls)
     v_of_rho     :     13.36s CPU     16.02s WALL (      10 calls)
     newd         :     18.12s CPU     25.18s WALL (      10 calls)
     mix_rho      :      3.67s CPU      3.96s WALL (       9 calls)

     Called by c_bands:
     init_us_2    :      0.19s CPU      0.19s WALL (      19 calls)
     init_us_2:cp :      0.19s CPU      0.19s WALL (      19 calls)
     cegterg      :     12.89s CPU     14.26s WALL (       9 calls)

     Called by *egterg:
     cdiaghg      :      0.01s CPU      0.01s WALL (      55 calls)
     h_psi        :     11.64s CPU     13.02s WALL (      56 calls)
     s_psi        :      0.18s CPU      0.19s WALL (      56 calls)
     g_psi        :      0.04s CPU      0.04s WALL (      46 calls)

     Called by h_psi:
     h_psi:calbec :      0.19s CPU      0.21s WALL (      56 calls)
     vloc_psi     :     11.19s CPU     12.54s WALL (      56 calls)
     add_vuspsi   :      0.19s CPU      0.20s WALL (      56 calls)

     General routines
     calbec       :      0.26s CPU      0.28s WALL (      69 calls)
     fft          :     12.15s CPU     15.50s WALL (     139 calls)
     ffts         :      0.59s CPU      0.76s WALL (      19 calls)
     fftw         :      8.87s CPU     10.32s WALL (     566 calls)
     interpolate  :      1.32s CPU      1.65s WALL (      10 calls)
 
     Parallel routines
 
     PWSCF        :   1m27.41s CPU   1m45.88s WALL

 
   This run was terminated on:  16:47:20   8Nov2023            

=------------------------------------------------------------------------------=
   JOB DONE.
=------------------------------------------------------------------------------=
