
     Program PWSCF v.7.2 starts on  8Nov2023 at 17:21:55 

     This program is part of the open-source Quantum ESPRESSO suite
     for quantum simulation of materials; please cite
         "P. Giannozzi et al., J. Phys.:Condens. Matter 21 395502 (2009);
         "P. Giannozzi et al., J. Phys.:Condens. Matter 29 465901 (2017);
         "P. Giannozzi et al., J. Chem. Phys. 152 154105 (2020);
          URL http://www.quantum-espresso.org", 
     in publications or presentations arising from this work. More details at
     http://www.quantum-espresso.org/quote

     Parallel version (MPI), running on     4 processors

     MPI processes distributed on     1 nodes
     9297 MiB available memory on the printing compute node when the environment starts
 
     Reading input from espresso.pwi
Warning: card &CELL ignored
Warning: card / ignored

     Current dimensions of program PWSCF are:
     Max number of different atomic species (ntypx) = 10
     Max number of k-points (npk) =  40000
     Max angular momentum in pseudopotentials (lmaxx) =  4
     Presently no symmetry can be used with electric field

 
     R & G space division:  proc/nbgrp/npool/nimage =       4
     Subspace diagonalization in iterative solution of the eigenvalue problem:
     a serial algorithm will be used

 
     Parallelization info
     --------------------
     sticks:   dense  smooth     PW     G-vecs:    dense   smooth      PW
     Min        7666    3832    958              1011072   357408   44730
     Max        7670    3833    959              1011073   357411   44733
     Sum       30669   15329   3833              4044289  1429635  178925
 
     Using Slab Decomposition
 


     bravais-lattice index     =            0
     lattice parameter (alat)  =      28.3459  a.u.
     unit-cell volume          =   22775.6289 (a.u.)^3
     number of atoms/cell      =            3
     number of atomic types    =            2
     number of electrons       =         8.00
     number of Kohn-Sham states=            8
     kinetic-energy cutoff     =      60.0000  Ry
     charge density cutoff     =     480.0000  Ry
     scf convergence threshold =      1.0E-07
     mixing beta               =       0.7000
     number of iterations used =            8  plain     mixing
     Exchange-correlation=  SLA  PW   PBX  PBC
                           (   1   4   3   4   0   0   0)

     celldm(1)=  28.345892  celldm(2)=   0.000000  celldm(3)=   0.000000
     celldm(4)=   0.000000  celldm(5)=   0.000000  celldm(6)=   0.000000

     crystal axes: (cart. coord. in units of alat)
               a(1) = (   1.000000   0.000000   0.000000 )  
               a(2) = (   0.000000   1.000000   0.000000 )  
               a(3) = (   0.000000   0.000000   1.000000 )  

     reciprocal axes: (cart. coord. in units 2 pi/alat)
               b(1) = (  1.000000  0.000000  0.000000 )  
               b(2) = (  0.000000  1.000000  0.000000 )  
               b(3) = (  0.000000  0.000000  1.000000 )  


     PseudoPot. # 1 for O  read from file:
     /home/krojas/github_files/MatSciToolKit/tutorial/example_ase_ir_2/ir_1/o_pbe_v1.2.uspp.F.UPF
     MD5 check sum: 734c27235a0248c51dbae37a1fbe46ec
     Pseudo is Ultrasoft + core correction, Zval =  6.0
     Generated by new atomic code, or converted to UPF format
     Using radial grid of  737 points,  5 beta functions with: 
                l(1) =   0
                l(2) =   0
                l(3) =   1
                l(4) =   1
                l(5) =   2
     Q(r) pseudized with  8 coefficients,  rinner =    0.900   0.900   0.900
                                                       0.900   0.900

     PseudoPot. # 2 for H  read from file:
     /home/krojas/github_files/MatSciToolKit/tutorial/example_ase_ir_2/ir_1/h_pbe_v1.4.uspp.F.UPF
     MD5 check sum: 761ae9a214b05c3daf00ab9f6b793d6f
     Pseudo is Ultrasoft, Zval =  1.0
     Generated by new atomic code, or converted to UPF format
     Using radial grid of  615 points,  2 beta functions with: 
                l(1) =   0
                l(2) =   0
     Q(r) pseudized with  8 coefficients,  rinner =    0.700

     atomic species   valence    mass     pseudopotential
        O              6.00    15.99900     O ( 1.00)
        H              1.00     1.00800     H ( 1.00)

     No symmetry found



   Cartesian axes

     site n.     atom                  positions (alat units)
         1           O   tau(   1) = (   0.5000000   0.5000000   0.5201804  )
         2           H   tau(   2) = (   0.5000000   0.5520146   0.4798196  )
         3           H   tau(   3) = (   0.5000000   0.4486521   0.4798196  )

     number of k points=     1  Gaussian smearing, width (Ry)=  0.0100
                       cart. coord. in units 2pi/alat
        k(    1) = (   0.0000000   0.0000000   0.0000000), wk =   2.0000000

     Dense  grid:  4044289 G-vectors     FFT dimensions: ( 200, 200, 200)

     Smooth grid:  1429635 G-vectors     FFT dimensions: ( 144, 144, 144)

     Estimated max dynamical RAM per process >       2.25 GB

     Estimated total dynamical RAM >       9.02 GB

     Initial potential from superposition of free atoms

     starting charge       8.0000, renormalised to       8.0000

     negative rho (up, down):  5.052E-04 0.000E+00
 
     Adding external electric field

     Computed dipole along edir(3) : 
        Dipole               -0.0000 Ry au,         -0.0000 Debye
        Dipole field         -0.0000 Ry au, 
 
        Potential amp.        0.0000 Ry
        Total length         28.3431 bohr
 
     Starting wfcs are    6 randomized atomic wfcs +    2 random wfcs

     total cpu time spent up to now is        8.4 secs

     per-process dynamical memory:   488.9 Mb

     Self-consistent Calculation

     iteration #  1     ecut=    60.00 Ry     beta= 0.70
     Davidson diagonalization with overlap
     ethr =  1.00E-02,  avg # of iterations =  8.0

     negative rho (up, down):  1.820E-03 0.000E+00
 
     Adding external electric field

     Computed dipole along edir(3) : 
        Dipole               -0.7983 Ry au,         -2.0291 Debye
        Dipole field         -0.0004 Ry au, 
 
        Potential amp.        0.0250 Ry
        Total length         28.3431 bohr
 

     total cpu time spent up to now is       19.9 secs

     total energy              =     -34.47375412 Ry
     estimated scf accuracy    <       0.45552279 Ry

     iteration #  2     ecut=    60.00 Ry     beta= 0.70
     Davidson diagonalization with overlap
     ethr =  5.69E-03,  avg # of iterations =  2.0

     negative rho (up, down):  2.088E-03 0.000E+00
 
     Adding external electric field

     Computed dipole along edir(3) : 
        Dipole               -0.5798 Ry au,         -1.4737 Debye
        Dipole field         -0.0003 Ry au, 
 
        Potential amp.        0.0181 Ry
        Total length         28.3431 bohr
 

     total cpu time spent up to now is       29.9 secs

     total energy              =     -34.58522755 Ry
     estimated scf accuracy    <       0.45686327 Ry

     iteration #  3     ecut=    60.00 Ry     beta= 0.70
     Davidson diagonalization with overlap
     ethr =  5.69E-03,  avg # of iterations =  2.0

     negative rho (up, down):  2.369E-03 0.000E+00
 
     Adding external electric field

     Computed dipole along edir(3) : 
        Dipole               -0.7037 Ry au,         -1.7887 Debye
        Dipole field         -0.0004 Ry au, 
 
        Potential amp.        0.0220 Ry
        Total length         28.3431 bohr
 

     total cpu time spent up to now is       39.4 secs

     total energy              =     -34.66615523 Ry
     estimated scf accuracy    <       0.00373618 Ry

     iteration #  4     ecut=    60.00 Ry     beta= 0.70
     Davidson diagonalization with overlap
     ethr =  4.67E-05,  avg # of iterations =  8.0

     negative rho (up, down):  2.365E-03 0.000E+00
 
     Adding external electric field

     Computed dipole along edir(3) : 
        Dipole               -0.7019 Ry au,         -1.7842 Debye
        Dipole field         -0.0004 Ry au, 
 
        Potential amp.        0.0220 Ry
        Total length         28.3431 bohr
 

     total cpu time spent up to now is       50.3 secs

     total energy              =     -34.66715632 Ry
     estimated scf accuracy    <       0.00175507 Ry

     iteration #  5     ecut=    60.00 Ry     beta= 0.70
     Davidson diagonalization with overlap
     ethr =  2.19E-05,  avg # of iterations =  1.0

     negative rho (up, down):  2.405E-03 0.000E+00
 
     Adding external electric field

     Computed dipole along edir(3) : 
        Dipole               -0.7150 Ry au,         -1.8174 Debye
        Dipole field         -0.0004 Ry au, 
 
        Potential amp.        0.0224 Ry
        Total length         28.3431 bohr
 

     total cpu time spent up to now is       59.8 secs

     total energy              =     -34.66701800 Ry
     estimated scf accuracy    <       0.00034544 Ry

     iteration #  6     ecut=    60.00 Ry     beta= 0.70
     Davidson diagonalization with overlap
     ethr =  4.32E-06,  avg # of iterations = 16.0

     negative rho (up, down):  2.403E-03 0.000E+00
 
     Adding external electric field

     Computed dipole along edir(3) : 
        Dipole               -0.7083 Ry au,         -1.8002 Debye
        Dipole field         -0.0004 Ry au, 
 
        Potential amp.        0.0222 Ry
        Total length         28.3431 bohr
 

     total cpu time spent up to now is       71.2 secs

     total energy              =     -34.66713564 Ry
     estimated scf accuracy    <       0.00010925 Ry

     iteration #  7     ecut=    60.00 Ry     beta= 0.70
     Davidson diagonalization with overlap
     ethr =  1.37E-06,  avg # of iterations =  5.0

     negative rho (up, down):  2.410E-03 0.000E+00
 
     Adding external electric field

     Computed dipole along edir(3) : 
        Dipole               -0.7077 Ry au,         -1.7988 Debye
        Dipole field         -0.0004 Ry au, 
 
        Potential amp.        0.0221 Ry
        Total length         28.3431 bohr
 

     total cpu time spent up to now is       81.0 secs

     total energy              =     -34.66715208 Ry
     estimated scf accuracy    <       0.00000127 Ry

     iteration #  8     ecut=    60.00 Ry     beta= 0.70
     Davidson diagonalization with overlap
     ethr =  1.58E-08,  avg # of iterations =  2.0

     negative rho (up, down):  2.411E-03 0.000E+00
 
     Adding external electric field

     Computed dipole along edir(3) : 
        Dipole               -0.7076 Ry au,         -1.7985 Debye
        Dipole field         -0.0004 Ry au, 
 
        Potential amp.        0.0221 Ry
        Total length         28.3431 bohr
 

     total cpu time spent up to now is       90.8 secs

     total energy              =     -34.66715222 Ry
     estimated scf accuracy    <       0.00000022 Ry

     iteration #  9     ecut=    60.00 Ry     beta= 0.70
     Davidson diagonalization with overlap
     ethr =  2.76E-09,  avg # of iterations =  2.0

     negative rho (up, down):  2.411E-03 0.000E+00
 
     Adding external electric field

     Computed dipole along edir(3) : 
        Dipole               -0.7075 Ry au,         -1.7984 Debye
        Dipole field         -0.0004 Ry au, 
 
        Potential amp.        0.0221 Ry
        Total length         28.3431 bohr
 

     total cpu time spent up to now is      100.6 secs

     End of self-consistent calculation

          k = 0.0000 0.0000 0.0000 (178925 PWs)   bands (ev):

   -25.0828 -12.9182  -9.2794  -7.1767  -1.0157  -0.1170   0.2293   0.3600

     the Fermi energy is    -5.3204 ev

!    total energy              =     -34.66715225 Ry
     estimated scf accuracy    <          9.2E-09 Ry
     smearing contrib. (-TS)   =      -0.00000000 Ry
     internal energy E=F+TS    =     -34.66715225 Ry

     The total energy is F=E-TS. E is the sum of the following terms:
     one-electron contribution =     -69.35006024 Ry
     hartree contribution      =      36.15564247 Ry
     xc contribution           =      -8.67074941 Ry
     ewald contribution        =       7.19773872 Ry
     electric field correction =       0.00027621 Ry

     convergence has been achieved in   9 iterations

     negative rho (up, down):  2.411E-03 0.000E+00

     Forces acting on atoms (cartesian axes, Ry/au):

     atom    1 type  1   force =     0.00000091    0.01228369   -0.00763662
     atom    2 type  2   force =     0.00000001   -0.01329709    0.00859163
     atom    3 type  2   force =    -0.00000092    0.00101340   -0.00095501
     The non-local contrib.  to forces
     atom    1 type  1   force =     0.00000251    0.00222408   -2.17036924
     atom    2 type  2   force =    -0.00000000   -0.19168710    0.13685314
     atom    3 type  2   force =    -0.00000031    0.19533745    0.14154650
     The ionic contribution  to forces
     atom    1 type  1   force =    -0.00000000    0.03053187    4.27092508
     atom    2 type  2   force =    -0.00000000    2.95078148   -2.10976797
     atom    3 type  2   force =     0.00000000   -2.98131335   -2.16115711
     The local contribution  to forces
     atom    1 type  1   force =     0.00000510   -0.02036156   -2.12481512
     atom    2 type  2   force =     0.00000034   -2.77238841    1.98069634
     atom    3 type  2   force =    -0.00000057    2.78698375    2.01784481
     The core correction contribution to forces
     atom    1 type  1   force =    -0.00000001   -0.00011851    0.01170156
     atom    2 type  2   force =     0.00000000    0.00000000    0.00000000
     atom    3 type  2   force =     0.00000000    0.00000000    0.00000000
     The Hubbard contrib.    to forces
     atom    1 type  1   force =     0.00000000    0.00000000    0.00000000
     atom    2 type  2   force =     0.00000000    0.00000000    0.00000000
     atom    3 type  2   force =     0.00000000    0.00000000    0.00000000
     The SCF correction term to forces
     atom    1 type  1   force =    -0.00000686    0.00000726    0.00022102
     atom    2 type  2   force =    -0.00000048   -0.00000360    0.00001388
     atom    3 type  2   force =    -0.00000020    0.00000502    0.00001456

     Total force =     0.021489     Total SCF correction =     0.000222

     Writing all to output data dir tmpdir/pwscf.save/
 
     init_run     :      6.90s CPU      8.28s WALL (       1 calls)
     electrons    :     77.13s CPU     92.43s WALL (       1 calls)
     forces       :      4.16s CPU      5.05s WALL (       1 calls)

     Called by init_run:
     wfcinit      :      0.46s CPU      0.51s WALL (       1 calls)
     potinit      :      1.93s CPU      2.27s WALL (       1 calls)
     hinit0       :      0.52s CPU      0.62s WALL (       1 calls)

     Called by electrons:
     c_bands      :     13.13s CPU     14.39s WALL (       9 calls)
     sum_band     :     30.32s CPU     35.31s WALL (       9 calls)
     v_of_rho     :     13.99s CPU     16.69s WALL (      10 calls)
     newd         :     17.63s CPU     24.38s WALL (      10 calls)
     mix_rho      :      3.75s CPU      4.04s WALL (       9 calls)

     Called by c_bands:
     init_us_2    :      0.17s CPU      0.17s WALL (      19 calls)
     init_us_2:cp :      0.17s CPU      0.17s WALL (      19 calls)
     cegterg      :     12.78s CPU     14.03s WALL (       9 calls)

     Called by *egterg:
     cdiaghg      :      0.01s CPU      0.01s WALL (      55 calls)
     h_psi        :     11.65s CPU     12.94s WALL (      56 calls)
     s_psi        :      0.18s CPU      0.18s WALL (      56 calls)
     g_psi        :      0.04s CPU      0.04s WALL (      46 calls)

     Called by h_psi:
     h_psi:calbec :      0.19s CPU      0.21s WALL (      56 calls)
     vloc_psi     :     11.20s CPU     12.46s WALL (      56 calls)
     add_vuspsi   :      0.20s CPU      0.20s WALL (      56 calls)

     General routines
     calbec       :      0.26s CPU      0.28s WALL (      69 calls)
     fft          :     12.74s CPU     16.11s WALL (     139 calls)
     ffts         :      0.57s CPU      0.74s WALL (      19 calls)
     fftw         :      8.82s CPU     10.10s WALL (     564 calls)
     interpolate  :      1.28s CPU      1.59s WALL (      10 calls)
 
     Parallel routines
 
     PWSCF        :   1m28.32s CPU   1m46.05s WALL

 
   This run was terminated on:  17:23:41   8Nov2023            

=------------------------------------------------------------------------------=
   JOB DONE.
=------------------------------------------------------------------------------=
