
     Program PWSCF v.7.2 starts on  8Nov2023 at 16:47:21 

     This program is part of the open-source Quantum ESPRESSO suite
     for quantum simulation of materials; please cite
         "P. Giannozzi et al., J. Phys.:Condens. Matter 21 395502 (2009);
         "P. Giannozzi et al., J. Phys.:Condens. Matter 29 465901 (2017);
         "P. Giannozzi et al., J. Chem. Phys. 152 154105 (2020);
          URL http://www.quantum-espresso.org", 
     in publications or presentations arising from this work. More details at
     http://www.quantum-espresso.org/quote

     Parallel version (MPI), running on     4 processors

     MPI processes distributed on     1 nodes
     9308 MiB available memory on the printing compute node when the environment starts
 
     Reading input from espresso.pwi
Warning: card &CELL ignored
Warning: card / ignored

     Current dimensions of program PWSCF are:
     Max number of different atomic species (ntypx) = 10
     Max number of k-points (npk) =  40000
     Max angular momentum in pseudopotentials (lmaxx) =  4
     Presently no symmetry can be used with electric field

 
     R & G space division:  proc/nbgrp/npool/nimage =       4
     Subspace diagonalization in iterative solution of the eigenvalue problem:
     a serial algorithm will be used

 
     Parallelization info
     --------------------
     sticks:   dense  smooth     PW     G-vecs:    dense   smooth      PW
     Min        7666    3832    958              1011072   357408   44730
     Max        7670    3833    959              1011073   357411   44733
     Sum       30669   15329   3833              4044289  1429635  178925
 
     Using Slab Decomposition
 


     bravais-lattice index     =            0
     lattice parameter (alat)  =      28.3459  a.u.
     unit-cell volume          =   22775.6289 (a.u.)^3
     number of atoms/cell      =            3
     number of atomic types    =            2
     number of electrons       =         8.00
     number of Kohn-Sham states=            8
     kinetic-energy cutoff     =      60.0000  Ry
     charge density cutoff     =     480.0000  Ry
     scf convergence threshold =      1.0E-07
     mixing beta               =       0.7000
     number of iterations used =            8  plain     mixing
     Exchange-correlation=  SLA  PW   PBX  PBC
                           (   1   4   3   4   0   0   0)

     celldm(1)=  28.345892  celldm(2)=   0.000000  celldm(3)=   0.000000
     celldm(4)=   0.000000  celldm(5)=   0.000000  celldm(6)=   0.000000

     crystal axes: (cart. coord. in units of alat)
               a(1) = (   1.000000   0.000000   0.000000 )  
               a(2) = (   0.000000   1.000000   0.000000 )  
               a(3) = (   0.000000   0.000000   1.000000 )  

     reciprocal axes: (cart. coord. in units 2 pi/alat)
               b(1) = (  1.000000  0.000000  0.000000 )  
               b(2) = (  0.000000  1.000000  0.000000 )  
               b(3) = (  0.000000  0.000000  1.000000 )  


     PseudoPot. # 1 for O  read from file:
     /home/krojas/github_files/MatSciToolKit/tutorial/example_ase_ir_2/ir_1/o_pbe_v1.2.uspp.F.UPF
     MD5 check sum: 734c27235a0248c51dbae37a1fbe46ec
     Pseudo is Ultrasoft + core correction, Zval =  6.0
     Generated by new atomic code, or converted to UPF format
     Using radial grid of  737 points,  5 beta functions with: 
                l(1) =   0
                l(2) =   0
                l(3) =   1
                l(4) =   1
                l(5) =   2
     Q(r) pseudized with  8 coefficients,  rinner =    0.900   0.900   0.900
                                                       0.900   0.900

     PseudoPot. # 2 for H  read from file:
     /home/krojas/github_files/MatSciToolKit/tutorial/example_ase_ir_2/ir_1/h_pbe_v1.4.uspp.F.UPF
     MD5 check sum: 761ae9a214b05c3daf00ab9f6b793d6f
     Pseudo is Ultrasoft, Zval =  1.0
     Generated by new atomic code, or converted to UPF format
     Using radial grid of  615 points,  2 beta functions with: 
                l(1) =   0
                l(2) =   0
     Q(r) pseudized with  8 coefficients,  rinner =    0.700

     atomic species   valence    mass     pseudopotential
        O              6.00    15.99900     O ( 1.00)
        H              1.00     1.00800     H ( 1.00)

     No symmetry found



   Cartesian axes

     site n.     atom                  positions (alat units)
         1           O   tau(   1) = (   0.5000000   0.5006667   0.5201804  )
         2           H   tau(   2) = (   0.5000000   0.5513479   0.4798196  )
         3           H   tau(   3) = (   0.5000000   0.4486521   0.4798196  )

     number of k points=     1  Gaussian smearing, width (Ry)=  0.0100
                       cart. coord. in units 2pi/alat
        k(    1) = (   0.0000000   0.0000000   0.0000000), wk =   2.0000000

     Dense  grid:  4044289 G-vectors     FFT dimensions: ( 200, 200, 200)

     Smooth grid:  1429635 G-vectors     FFT dimensions: ( 144, 144, 144)

     Estimated max dynamical RAM per process >       2.25 GB

     Estimated total dynamical RAM >       9.02 GB

     Initial potential from superposition of free atoms

     starting charge       8.0000, renormalised to       8.0000

     negative rho (up, down):  5.057E-04 0.000E+00
 
     Adding external electric field

     Computed dipole along edir(1) : 
        Dipole                0.0000 Ry au,          0.0000 Debye
        Dipole field          0.0000 Ry au, 
 
        Potential amp.       -0.0000 Ry
        Total length         28.3431 bohr
 
     Starting wfcs are    6 randomized atomic wfcs +    2 random wfcs

     total cpu time spent up to now is        8.0 secs

     per-process dynamical memory:   488.9 Mb

     Self-consistent Calculation

     iteration #  1     ecut=    60.00 Ry     beta= 0.70
     Davidson diagonalization with overlap
     ethr =  1.00E-02,  avg # of iterations =  8.0

     negative rho (up, down):  1.823E-03 0.000E+00
 
     Adding external electric field

     Computed dipole along edir(1) : 
        Dipole                0.0000 Ry au,          0.0000 Debye
        Dipole field          0.0000 Ry au, 
 
        Potential amp.       -0.0000 Ry
        Total length         28.3431 bohr
 

     total cpu time spent up to now is       18.8 secs

     total energy              =     -34.47369435 Ry
     estimated scf accuracy    <       0.45711799 Ry

     iteration #  2     ecut=    60.00 Ry     beta= 0.70
     Davidson diagonalization with overlap
     ethr =  5.71E-03,  avg # of iterations =  2.0

     negative rho (up, down):  2.093E-03 0.000E+00
 
     Adding external electric field

     Computed dipole along edir(1) : 
        Dipole               -0.0006 Ry au,         -0.0015 Debye
        Dipole field         -0.0000 Ry au, 
 
        Potential amp.        0.0000 Ry
        Total length         28.3431 bohr
 

     total cpu time spent up to now is       28.3 secs

     total energy              =     -34.58640640 Ry
     estimated scf accuracy    <       0.45129248 Ry

     iteration #  3     ecut=    60.00 Ry     beta= 0.70
     Davidson diagonalization with overlap
     ethr =  5.64E-03,  avg # of iterations =  2.0

     negative rho (up, down):  2.373E-03 0.000E+00
 
     Adding external electric field

     Computed dipole along edir(1) : 
        Dipole                0.0001 Ry au,          0.0001 Debye
        Dipole field          0.0000 Ry au, 
 
        Potential amp.       -0.0000 Ry
        Total length         28.3431 bohr
 

     total cpu time spent up to now is       37.9 secs

     total energy              =     -34.66632116 Ry
     estimated scf accuracy    <       0.00371188 Ry

     iteration #  4     ecut=    60.00 Ry     beta= 0.70
     Davidson diagonalization with overlap
     ethr =  4.64E-05,  avg # of iterations =  8.0

     negative rho (up, down):  2.369E-03 0.000E+00
 
     Adding external electric field

     Computed dipole along edir(1) : 
        Dipole               -0.0000 Ry au,         -0.0001 Debye
        Dipole field         -0.0000 Ry au, 
 
        Potential amp.        0.0000 Ry
        Total length         28.3431 bohr
 

     total cpu time spent up to now is       49.0 secs

     total energy              =     -34.66732678 Ry
     estimated scf accuracy    <       0.00176084 Ry

     iteration #  5     ecut=    60.00 Ry     beta= 0.70
     Davidson diagonalization with overlap
     ethr =  2.20E-05,  avg # of iterations =  1.0

     negative rho (up, down):  2.410E-03 0.000E+00
 
     Adding external electric field

     Computed dipole along edir(1) : 
        Dipole               -0.0001 Ry au,         -0.0001 Debye
        Dipole field         -0.0000 Ry au, 
 
        Potential amp.        0.0000 Ry
        Total length         28.3431 bohr
 

     total cpu time spent up to now is       58.3 secs

     total energy              =     -34.66718065 Ry
     estimated scf accuracy    <       0.00035164 Ry

     iteration #  6     ecut=    60.00 Ry     beta= 0.70
     Davidson diagonalization with overlap
     ethr =  4.40E-06,  avg # of iterations =  8.0

     negative rho (up, down):  2.407E-03 0.000E+00
 
     Adding external electric field

     Computed dipole along edir(1) : 
        Dipole               -0.0000 Ry au,         -0.0001 Debye
        Dipole field         -0.0000 Ry au, 
 
        Potential amp.        0.0000 Ry
        Total length         28.3431 bohr
 

     total cpu time spent up to now is       68.9 secs

     total energy              =     -34.66730039 Ry
     estimated scf accuracy    <       0.00012321 Ry

     iteration #  7     ecut=    60.00 Ry     beta= 0.70
     Davidson diagonalization with overlap
     ethr =  1.54E-06,  avg # of iterations =  5.0

     negative rho (up, down):  2.414E-03 0.000E+00
 
     Adding external electric field

     Computed dipole along edir(1) : 
        Dipole                0.0000 Ry au,          0.0001 Debye
        Dipole field          0.0000 Ry au, 
 
        Potential amp.       -0.0000 Ry
        Total length         28.3431 bohr
 

     total cpu time spent up to now is       78.7 secs

     total energy              =     -34.66731993 Ry
     estimated scf accuracy    <       0.00000094 Ry

     iteration #  8     ecut=    60.00 Ry     beta= 0.70
     Davidson diagonalization with overlap
     ethr =  1.18E-08,  avg # of iterations =  2.0

     negative rho (up, down):  2.415E-03 0.000E+00
 
     Adding external electric field

     Computed dipole along edir(1) : 
        Dipole                0.0000 Ry au,          0.0000 Debye
        Dipole field          0.0000 Ry au, 
 
        Potential amp.       -0.0000 Ry
        Total length         28.3431 bohr
 

     total cpu time spent up to now is       88.2 secs

     total energy              =     -34.66732002 Ry
     estimated scf accuracy    <       0.00000022 Ry

     iteration #  9     ecut=    60.00 Ry     beta= 0.70
     Davidson diagonalization with overlap
     ethr =  2.69E-09,  avg # of iterations =  2.0

     negative rho (up, down):  2.415E-03 0.000E+00
 
     Adding external electric field

     Computed dipole along edir(1) : 
        Dipole               -0.0000 Ry au,         -0.0000 Debye
        Dipole field         -0.0000 Ry au, 
 
        Potential amp.        0.0000 Ry
        Total length         28.3431 bohr
 

     total cpu time spent up to now is       97.3 secs

     End of self-consistent calculation

          k = 0.0000 0.0000 0.0000 (178925 PWs)   bands (ev):

   -25.1338 -12.9364  -9.3068  -7.1894  -0.9905  -0.1061   0.2509   0.3817

     the Fermi energy is    -5.3169 ev

!    total energy              =     -34.66732005 Ry
     estimated scf accuracy    <          5.8E-09 Ry
     smearing contrib. (-TS)   =      -0.00000000 Ry
     internal energy E=F+TS    =     -34.66732005 Ry

     The total energy is F=E-TS. E is the sum of the following terms:
     one-electron contribution =     -69.44437025 Ry
     hartree contribution      =      36.20084694 Ry
     xc contribution           =      -8.67819188 Ry
     ewald contribution        =       7.25439515 Ry
     electric field correction =       0.00000000 Ry

     convergence has been achieved in   9 iterations

     negative rho (up, down):  2.415E-03 0.000E+00

     Forces acting on atoms (cartesian axes, Ry/au):

     atom    1 type  1   force =    -0.00000030   -0.02512553    0.00067999
     atom    2 type  2   force =     0.00000040    0.01285441   -0.01021917
     atom    3 type  2   force =    -0.00000009    0.01227112    0.00953918
     The non-local contrib.  to forces
     atom    1 type  1   force =    -0.00000040   -0.00483213   -2.17356922
     atom    2 type  2   force =    -0.00000011   -0.19889424    0.14659267
     atom    3 type  2   force =    -0.00000009    0.19159366    0.13707400
     The ionic contribution  to forces
     atom    1 type  1   force =     0.00000000   -0.06114147    4.32372813
     atom    2 type  2   force =    -0.00000000    3.01496527   -2.21396016
     atom    3 type  2   force =    -0.00000000   -2.95382380   -2.10976797
     The local contribution  to forces
     atom    1 type  1   force =     0.00000754    0.04061261   -2.16125734
     atom    2 type  2   force =    -0.00000011   -2.80321535    2.05712809
     atom    3 type  2   force =     0.00000055    2.77449969    1.98221261
     The core correction contribution to forces
     atom    1 type  1   force =     0.00000002    0.00024070    0.01159061
     atom    2 type  2   force =     0.00000000    0.00000000    0.00000000
     atom    3 type  2   force =     0.00000000    0.00000000    0.00000000
     The Hubbard contrib.    to forces
     atom    1 type  1   force =     0.00000000    0.00000000    0.00000000
     atom    2 type  2   force =     0.00000000    0.00000000    0.00000000
     atom    3 type  2   force =     0.00000000    0.00000000    0.00000000
     The SCF correction term to forces
     atom    1 type  1   force =    -0.00000828   -0.00000550    0.00017689
     atom    2 type  2   force =    -0.00000016   -0.00000154    0.00000930
     atom    3 type  2   force =    -0.00000133    0.00000131    0.00000960

     Total force =     0.033808     Total SCF correction =     0.000178

     Writing all to output data dir tmpdir/pwscf.save/
 
     init_run     :      6.44s CPU      7.89s WALL (       1 calls)
     electrons    :     74.76s CPU     89.49s WALL (       1 calls)
     forces       :      3.93s CPU      4.83s WALL (       1 calls)

     Called by init_run:
     wfcinit      :      0.40s CPU      0.46s WALL (       1 calls)
     potinit      :      1.79s CPU      2.15s WALL (       1 calls)
     hinit0       :      0.49s CPU      0.57s WALL (       1 calls)

     Called by electrons:
     c_bands      :     12.18s CPU     13.49s WALL (       9 calls)
     sum_band     :     29.11s CPU     33.90s WALL (       9 calls)
     v_of_rho     :     13.12s CPU     15.65s WALL (      10 calls)
     newd         :     18.02s CPU     24.68s WALL (      10 calls)
     mix_rho      :      3.68s CPU      4.01s WALL (       9 calls)

     Called by c_bands:
     init_us_2    :      0.18s CPU      0.19s WALL (      19 calls)
     init_us_2:cp :      0.18s CPU      0.19s WALL (      19 calls)
     cegterg      :     11.85s CPU     13.16s WALL (       9 calls)

     Called by *egterg:
     cdiaghg      :      0.01s CPU      0.01s WALL (      47 calls)
     h_psi        :     10.80s CPU     12.13s WALL (      48 calls)
     s_psi        :      0.15s CPU      0.16s WALL (      48 calls)
     g_psi        :      0.03s CPU      0.03s WALL (      38 calls)

     Called by h_psi:
     h_psi:calbec :      0.16s CPU      0.18s WALL (      48 calls)
     vloc_psi     :     10.40s CPU     11.72s WALL (      48 calls)
     add_vuspsi   :      0.17s CPU      0.17s WALL (      48 calls)

     General routines
     calbec       :      0.22s CPU      0.24s WALL (      61 calls)
     fft          :     11.98s CPU     15.04s WALL (     139 calls)
     ffts         :      0.59s CPU      0.72s WALL (      19 calls)
     fftw         :      8.15s CPU      9.46s WALL (     552 calls)
     interpolate  :      1.34s CPU      1.58s WALL (      10 calls)
 
     Parallel routines
 
     PWSCF        :   1m25.23s CPU   1m42.51s WALL

 
   This run was terminated on:  16:49: 4   8Nov2023            

=------------------------------------------------------------------------------=
   JOB DONE.
=------------------------------------------------------------------------------=
