[0] MPI startup(): I_MPI_TCP_NETMASK variable has been removed from the product, its value is ignored


     Program PWSCF v.7.2 starts on 12Mar2024 at 17:24: 0 

     This program is part of the open-source Quantum ESPRESSO suite
     for quantum simulation of materials; please cite
         "P. Giannozzi et al., J. Phys.:Condens. Matter 21 395502 (2009);
         "P. Giannozzi et al., J. Phys.:Condens. Matter 29 465901 (2017);
         "P. Giannozzi et al., J. Chem. Phys. 152 154105 (2020);
          URL http://www.quantum-espresso.org", 
     in publications or presentations arising from this work. More details at
     http://www.quantum-espresso.org/quote

     Parallel version (MPI), running on    16 processors

     MPI processes distributed on     1 nodes
     31555 MiB available memory on the printing compute node when the environment starts
 
     Reading input from espresso.pwi
Warning: card &CELL ignored
Warning: card / ignored

     Current dimensions of program PWSCF are:
     Max number of different atomic species (ntypx) = 10
     Max number of k-points (npk) =  40000
     Max angular momentum in pseudopotentials (lmaxx) =  4
     Message from routine setup:
     using ibrav=0 with symmetry is DISCOURAGED, use correct ibrav instead
 
     R & G space division:  proc/nbgrp/npool/nimage =      16
     Subspace diagonalization in iterative solution of the eigenvalue problem:
     a serial algorithm will be used

 
     Parallelization info
     --------------------
     sticks:   dense  smooth     PW     G-vecs:    dense   smooth      PW
     Min          67      34     10                 7115     2515     444
     Max          68      36     11                 7126     2519     463
     Sum        1085     551    167               113933    40273    7201
 
     Using Slab Decomposition
 


     bravais-lattice index     =            0
     lattice parameter (alat)  =       5.6973  a.u.
     unit-cell volume          =     642.1518 (a.u.)^3
     number of atoms/cell      =            4
     number of atomic types    =            2
     number of electrons       =         8.00
     number of Kohn-Sham states=            8
     kinetic-energy cutoff     =      60.0000  Ry
     charge density cutoff     =     480.0000  Ry
     scf convergence threshold =      1.0E-06
     mixing beta               =       0.7000
     number of iterations used =            8  plain     mixing
     Exchange-correlation=  SLA  PW   PBX  PBC
                           (   1   4   3   4   0   0   0)

     celldm(1)=   5.697334  celldm(2)=   0.000000  celldm(3)=   0.000000
     celldm(4)=   0.000000  celldm(5)=   0.000000  celldm(6)=   0.000000

     crystal axes: (cart. coord. in units of alat)
               a(1) = (   0.999994  -0.003591   0.000000 )  
               a(2) = (   0.503167   0.875437   0.000000 )  
               a(3) = (   0.000000   0.000000   3.958265 )  

     reciprocal axes: (cart. coord. in units 2 pi/alat)
               b(1) = (  0.997946 -0.573581  0.000000 )  
               b(2) = (  0.004094  1.139933  0.000000 )  
               b(3) = (  0.000000  0.000000  0.252636 )  


     PseudoPot. # 1 for B  read from file:
     /home/krojas/QE/pseudo/b_pbe_v1.4.uspp.F.UPF
     MD5 check sum: cc6de2960df11db49a60e589f9ebb39b
     Pseudo is Ultrasoft + core correction, Zval =  3.0
     Generated by new atomic code, or converted to UPF format
     Using radial grid of  781 points,  4 beta functions with: 
                l(1) =   0
                l(2) =   0
                l(3) =   1
                l(4) =   1
     Q(r) pseudized with  8 coefficients,  rinner =    1.100   1.100   1.100


     PseudoPot. # 2 for H  read from file:
     /home/krojas/QE/pseudo/h_pbe_v1.4.uspp.F.UPF
     MD5 check sum: 761ae9a214b05c3daf00ab9f6b793d6f
     Pseudo is Ultrasoft, Zval =  1.0
     Generated by new atomic code, or converted to UPF format
     Using radial grid of  615 points,  2 beta functions with: 
                l(1) =   0
                l(2) =   0
     Q(r) pseudized with  8 coefficients,  rinner =    0.700

     atomic species   valence    mass     pseudopotential
        B              3.00    10.81000     B ( 1.00)
        H              1.00     1.00800     H ( 1.00)

      2 Sym. Ops. (no inversion) found



   Cartesian axes

     site n.     atom                  positions (alat units)
         1           B   tau(   1) = (  -0.0033169   0.0000000   1.9791325  )
         2           B   tau(   2) = (   0.5009657   0.2715580   1.9791325  )
         3           H   tau(   3) = (   0.5020846   0.5735104   2.2998349  )
         4           H   tau(   4) = (   0.5020846   0.5735104   1.6584302  )

     number of k points=    74  Gaussian smearing, width (Ry)=  0.0100
                       cart. coord. in units 2pi/alat
        k(    1) = (   0.0000000   0.0000000   0.0000000), wk =   0.0138889
        k(    2) = (   0.0003412   0.0949944   0.0000000), wk =   0.0277778
        k(    3) = (   0.0006823   0.1899889   0.0000000), wk =   0.0277778
        k(    4) = (   0.0010235   0.2849833   0.0000000), wk =   0.0277778
        k(    5) = (   0.0013646   0.3799777   0.0000000), wk =   0.0277778
        k(    6) = (   0.0017058   0.4749722   0.0000000), wk =   0.0277778
        k(    7) = (  -0.0020470  -0.5699666   0.0000000), wk =   0.0138889
        k(    8) = (   0.0831622  -0.0477984   0.0000000), wk =   0.0277778
        k(    9) = (   0.0835034   0.0471960   0.0000000), wk =   0.0277778
        k(   10) = (   0.0838445   0.1421905   0.0000000), wk =   0.0277778
        k(   11) = (   0.0841857   0.2371849   0.0000000), wk =   0.0277778
        k(   12) = (   0.0845269   0.3321793   0.0000000), wk =   0.0277778
        k(   13) = (   0.0848680   0.4271738   0.0000000), wk =   0.0277778
        k(   14) = (   0.0811152  -0.6177650   0.0000000), wk =   0.0277778
        k(   15) = (   0.0814564  -0.5227706   0.0000000), wk =   0.0277778
        k(   16) = (   0.0817976  -0.4277762   0.0000000), wk =   0.0277778
        k(   17) = (   0.0821387  -0.3327817   0.0000000), wk =   0.0277778
        k(   18) = (   0.0824799  -0.2377873   0.0000000), wk =   0.0277778
        k(   19) = (   0.0828210  -0.1427928   0.0000000), wk =   0.0277778
        k(   20) = (   0.1663244  -0.0955968   0.0000000), wk =   0.0277778
        k(   21) = (   0.1666656  -0.0006024   0.0000000), wk =   0.0277778
        k(   22) = (   0.1670067   0.0943921   0.0000000), wk =   0.0277778
        k(   23) = (   0.1673479   0.1893865   0.0000000), wk =   0.0277778
        k(   24) = (   0.1676891   0.2843809   0.0000000), wk =   0.0277778
        k(   25) = (   0.1680302   0.3793754   0.0000000), wk =   0.0277778
        k(   26) = (   0.1642774  -0.6655634   0.0000000), wk =   0.0277778
        k(   27) = (   0.1646186  -0.5705690   0.0000000), wk =   0.0277778
        k(   28) = (   0.1649598  -0.4755746   0.0000000), wk =   0.0277778
        k(   29) = (   0.1653009  -0.3805801   0.0000000), wk =   0.0277778
        k(   30) = (   0.1656421  -0.2855857   0.0000000), wk =   0.0277778
        k(   31) = (   0.1659833  -0.1905913   0.0000000), wk =   0.0277778
        k(   32) = (   0.2494866  -0.1433952   0.0000000), wk =   0.0277778
        k(   33) = (   0.2498278  -0.0484008   0.0000000), wk =   0.0277778
        k(   34) = (   0.2501689   0.0465936   0.0000000), wk =   0.0277778
        k(   35) = (   0.2505101   0.1415881   0.0000000), wk =   0.0277778
        k(   36) = (   0.2508513   0.2365825   0.0000000), wk =   0.0277778
        k(   37) = (   0.2511924   0.3315769   0.0000000), wk =   0.0277778
        k(   38) = (   0.2474397  -0.7133618   0.0000000), wk =   0.0277778
        k(   39) = (   0.2477808  -0.6183674   0.0000000), wk =   0.0277778
        k(   40) = (   0.2481220  -0.5233730   0.0000000), wk =   0.0277778
        k(   41) = (   0.2484631  -0.4283785   0.0000000), wk =   0.0277778
        k(   42) = (   0.2488043  -0.3333841   0.0000000), wk =   0.0277778
        k(   43) = (   0.2491455  -0.2383897   0.0000000), wk =   0.0277778
        k(   44) = (   0.3326488  -0.1911936   0.0000000), wk =   0.0277778
        k(   45) = (   0.3329900  -0.0961992   0.0000000), wk =   0.0277778
        k(   46) = (   0.3333312  -0.0012048   0.0000000), wk =   0.0277778
        k(   47) = (   0.3336723   0.0937897   0.0000000), wk =   0.0277778
        k(   48) = (   0.3340135   0.1887841   0.0000000), wk =   0.0277778
        k(   49) = (   0.3343546   0.2837785   0.0000000), wk =   0.0277778
        k(   50) = (   0.3306019  -0.7611603   0.0000000), wk =   0.0277778
        k(   51) = (   0.3309430  -0.6661658   0.0000000), wk =   0.0277778
        k(   52) = (   0.3312842  -0.5711714   0.0000000), wk =   0.0277778
        k(   53) = (   0.3316253  -0.4761769   0.0000000), wk =   0.0277778
        k(   54) = (   0.3319665  -0.3811825   0.0000000), wk =   0.0277778
        k(   55) = (   0.3323077  -0.2861881   0.0000000), wk =   0.0277778
        k(   56) = (   0.4158110  -0.2389921   0.0000000), wk =   0.0277778
        k(   57) = (   0.4161522  -0.1439976   0.0000000), wk =   0.0277778
        k(   58) = (   0.4164934  -0.0490032   0.0000000), wk =   0.0277778
        k(   59) = (   0.4168345   0.0459913   0.0000000), wk =   0.0277778
        k(   60) = (   0.4171757   0.1409857   0.0000000), wk =   0.0277778
        k(   61) = (   0.4175169   0.2359801   0.0000000), wk =   0.0277778
        k(   62) = (   0.4137641  -0.8089587   0.0000000), wk =   0.0277778
        k(   63) = (   0.4141052  -0.7139642   0.0000000), wk =   0.0277778
        k(   64) = (   0.4144464  -0.6189698   0.0000000), wk =   0.0277778
        k(   65) = (   0.4147876  -0.5239754   0.0000000), wk =   0.0277778
        k(   66) = (   0.4151287  -0.4289809   0.0000000), wk =   0.0277778
        k(   67) = (   0.4154699  -0.3339865   0.0000000), wk =   0.0277778
        k(   68) = (  -0.4989732   0.2867905   0.0000000), wk =   0.0138889
        k(   69) = (  -0.4986321   0.3817849   0.0000000), wk =   0.0277778
        k(   70) = (  -0.4982909   0.4767793   0.0000000), wk =   0.0277778
        k(   71) = (  -0.4979498   0.5717738   0.0000000), wk =   0.0277778
        k(   72) = (  -0.4976086   0.6667682   0.0000000), wk =   0.0277778
        k(   73) = (  -0.4972674   0.7617626   0.0000000), wk =   0.0277778
        k(   74) = (  -0.5010202  -0.2831762   0.0000000), wk =   0.0138889

     Dense  grid:   113933 G-vectors     FFT dimensions: (  40,  45, 160)

     Smooth grid:    40273 G-vectors     FFT dimensions: (  30,  30, 120)

     Estimated max dynamical RAM per process >      13.53 MB

     Estimated total dynamical RAM >     216.40 MB

     Initial potential from superposition of free atoms

     starting charge       7.9994, renormalised to       8.0000

     negative rho (up, down):  1.264E-05 0.000E+00
     Starting wfcs are   10 randomized atomic wfcs

     total cpu time spent up to now is        0.5 secs

     Self-consistent Calculation

     iteration #  1     ecut=    60.00 Ry     beta= 0.70
     Davidson diagonalization with overlap
     ethr =  1.00E-02,  avg # of iterations =  3.8

     negative rho (up, down):  1.228E-05 0.000E+00

     total cpu time spent up to now is        1.3 secs

     total energy              =     -15.01291737 Ry
     estimated scf accuracy    <       0.32451989 Ry

     iteration #  2     ecut=    60.00 Ry     beta= 0.70
     Davidson diagonalization with overlap
     ethr =  4.06E-03,  avg # of iterations =  3.7

     negative rho (up, down):  2.156E-05 0.000E+00

     total cpu time spent up to now is        1.9 secs

     total energy              =     -15.06600124 Ry
     estimated scf accuracy    <       0.01761720 Ry

     iteration #  3     ecut=    60.00 Ry     beta= 0.70
     Davidson diagonalization with overlap
     ethr =  2.20E-04,  avg # of iterations =  5.0

     negative rho (up, down):  3.140E-05 0.000E+00

     total cpu time spent up to now is        2.6 secs

     total energy              =     -15.06899886 Ry
     estimated scf accuracy    <       0.00052619 Ry

     iteration #  4     ecut=    60.00 Ry     beta= 0.70
     Davidson diagonalization with overlap
     c_bands:  1 eigenvalues not converged
     c_bands:  1 eigenvalues not converged
     ethr =  6.58E-06,  avg # of iterations =  6.5

     negative rho (up, down):  3.359E-05 0.000E+00

     total cpu time spent up to now is        3.4 secs

     total energy              =     -15.06907999 Ry
     estimated scf accuracy    <       0.00000534 Ry

     iteration #  5     ecut=    60.00 Ry     beta= 0.70
     Davidson diagonalization with overlap
     ethr =  6.67E-08,  avg # of iterations =  3.2

     negative rho (up, down):  3.422E-05 0.000E+00

     total cpu time spent up to now is        4.0 secs

     End of self-consistent calculation

          k = 0.0000 0.0000 0.0000 (  5017 PWs)   bands (ev):

   -14.4663  -8.7460  -2.9778  -0.5111   0.9715   2.3891   3.0051   5.6518

          k = 0.0003 0.0950 0.0000 (  4979 PWs)   bands (ev):

   -14.3674  -8.6281  -3.3699  -0.7637   1.0932   2.5307   3.1304   5.7763

          k = 0.0007 0.1900 0.0000 (  4988 PWs)   bands (ev):

   -14.0756  -8.2795  -4.3689  -1.3405   1.4728   2.9327   3.5149   4.0465

          k = 0.0010 0.2850 0.0000 (  5020 PWs)   bands (ev):

   -13.6090  -7.7197  -5.6465  -1.9648   2.0034   2.1089   3.7319   4.1317

          k = 0.0014 0.3800 0.0000 (  5038 PWs)   bands (ev):

   -13.0136  -6.9992  -6.9338  -2.4768   0.2659   2.9398   4.7155   4.7311

          k = 0.0017 0.4750 0.0000 (  5038 PWs)   bands (ev):

   -12.4141  -7.9858  -6.2613  -2.8039  -1.1012   3.6884   5.1453   5.9770

          k =-0.0020-0.5700 0.0000 (  5036 PWs)   bands (ev):

   -12.1222  -8.4342  -5.8936  -2.9157  -1.6810   3.9109   5.9264   6.5376

          k = 0.0832-0.0478 0.0000 (  5007 PWs)   bands (ev):

   -14.3675  -8.6449  -3.2681  -0.8920   1.1072   2.5310   3.1457   5.7582

          k = 0.0835 0.0472 0.0000 (  5007 PWs)   bands (ev):

   -14.3674  -8.6456  -3.2513  -0.9166   1.1074   2.5308   3.1460   5.6849

          k = 0.0838 0.1422 0.0000 (  5003 PWs)   bands (ev):

   -14.1723  -8.4146  -3.9421  -1.3402   1.3583   2.8058   3.4022   4.9402

          k = 0.0842 0.2372 0.0000 (  5010 PWs)   bands (ev):

   -13.7930  -7.9641  -5.0517  -1.9854   1.8728   2.8441   3.5235   3.9217

          k = 0.0845 0.3322 0.0000 (  5029 PWs)   bands (ev):

   -13.2593  -7.3265  -6.3014  -2.6065   1.1183   2.6316   4.2897   4.6475

          k = 0.0849 0.4272 0.0000 (  5030 PWs)   bands (ev):

   -12.6474  -7.4616  -6.5878  -3.0620  -0.4205   3.5339   5.2524   5.4041

          k = 0.0811-0.6178 0.0000 (  5055 PWs)   bands (ev):

   -12.1610  -8.2424  -5.9895  -3.2969  -1.4289   4.1883   5.8356   6.7254

          k = 0.0815-0.5228 0.0000 (  5055 PWs)   bands (ev):

   -12.1608  -8.2453  -5.9869  -3.2933  -1.4346   4.1932   5.8273   6.7311

          k = 0.0818-0.4278 0.0000 (  5030 PWs)   bands (ev):

   -12.6471  -7.4707  -6.5830  -3.0500  -0.4347   3.5390   5.2567   5.4078

          k = 0.0821-0.3328 0.0000 (  5029 PWs)   bands (ev):

   -13.2592  -7.3221  -6.3185  -2.5833   1.0983   2.6338   4.2916   4.6528

          k = 0.0825-0.2378 0.0000 (  5010 PWs)   bands (ev):

   -13.7930  -7.9608  -5.0786  -1.9479   1.8735   2.8240   3.5192   3.9235

          k = 0.0828-0.1428 0.0000 (  5003 PWs)   bands (ev):

   -14.1724  -8.4127  -3.9741  -1.2942   1.3581   2.8065   3.4025   4.9106

          k = 0.1663-0.0956 0.0000 (  5007 PWs)   bands (ev):

   -14.0772  -8.3516  -4.0502  -1.7469   1.5199   2.9447   3.5711   5.3630

          k = 0.1667-0.0006 0.0000 (  4991 PWs)   bands (ev):

   -14.1729  -8.4645  -3.6664  -1.6877   1.3930   2.8130   3.4416   6.0378

          k = 0.1670 0.0944 0.0000 (  5007 PWs)   bands (ev):

   -14.0771  -8.3543  -4.0000  -1.8157   1.5205   2.9435   3.5714   5.4162

          k = 0.1673 0.1894 0.0000 (  5031 PWs)   bands (ev):

   -13.7955  -8.0273  -4.8174  -2.2848   1.9066   3.1853   3.8693   3.9641

          k = 0.1677 0.2844 0.0000 (  5037 PWs)   bands (ev):

   -13.3488  -7.5068  -5.8260  -3.0145   1.8976   2.5549   4.1696   4.6269

          k = 0.1680 0.3794 0.0000 (  5046 PWs)   bands (ev):

   -12.7877  -6.8701  -6.8509  -3.6834   0.3944   3.4316   5.1047   5.5009

          k = 0.1643-0.6656 0.0000 (  5071 PWs)   bands (ev):

   -12.2389  -7.7519  -6.2056  -4.1127  -0.7840   4.3993   6.2140   6.2903

          k = 0.1646-0.5706 0.0000 (  5067 PWs)   bands (ev):

   -11.9809  -8.1329  -5.8981  -4.2526  -1.2769   4.9260   6.9257   7.0587

          k = 0.1650-0.4756 0.0000 (  5071 PWs)   bands (ev):

   -12.2380  -7.7665  -6.1976  -4.0951  -0.8055   4.4067   6.2273   6.2868

          k = 0.1653-0.3806 0.0000 (  5048 PWs)   bands (ev):

   -12.7871  -6.9005  -6.8413  -3.6449   0.3585   3.4355   5.1114   5.5089

          k = 0.1656-0.2856 0.0000 (  5037 PWs)   bands (ev):

   -13.3487  -7.4989  -5.8734  -2.9524   1.8528   2.5565   4.1711   4.6314

          k = 0.1660-0.1906 0.0000 (  5031 PWs)   bands (ev):

   -13.7956  -8.0218  -4.8762  -2.2048   1.9067   3.1728   3.8298   3.9657

          k = 0.2495-0.1434 0.0000 (  5031 PWs)   bands (ev):

   -13.6180  -7.9007  -5.1462  -2.6172   2.2101   3.3519   4.1263   4.2777

          k = 0.2498-0.0484 0.0000 (  5026 PWs)   bands (ev):

   -13.7978  -8.1051  -4.5037  -2.6720   1.9515   3.3535   4.0183   5.1727

          k = 0.2502 0.0466 0.0000 (  5026 PWs)   bands (ev):

   -13.7977  -8.1073  -4.4642  -2.7218   1.9520   3.3523   4.0186   5.2209

          k = 0.2505 0.1416 0.0000 (  5031 PWs)   bands (ev):

   -13.6180  -7.9072  -5.0768  -2.7107   2.2110   3.3716   4.1768   4.2766

          k = 0.2509 0.2366 0.0000 (  5038 PWs)   bands (ev):

   -13.2736  -7.5223  -5.8464  -3.1874   2.3304   2.7264   4.3707   4.7882

          k = 0.2512 0.3316 0.0000 (  5053 PWs)   bands (ev):

   -12.8028  -6.9968  -6.5868  -4.0181   1.0754   3.4911   5.1225   5.5948

          k = 0.2474-0.7134 0.0000 (  5056 PWs)   bands (ev):

   -12.2919  -7.2408  -6.4282  -4.7832   0.0017   4.4395   5.9392   6.5796

          k = 0.2478-0.6184 0.0000 (  5062 PWs)   bands (ev):

   -11.9196  -7.6867  -6.0139  -5.2049  -0.6746   5.3098   6.1815   7.2988

          k = 0.2481-0.5234 0.0000 (  5062 PWs)   bands (ev):

   -11.9186  -7.7026  -6.0075  -5.1872  -0.6923   5.3154   6.1980   7.2700

          k = 0.2485-0.4284 0.0000 (  5056 PWs)   bands (ev):

   -12.2903  -7.2846  -6.4145  -4.7322  -0.0442   4.4444   5.9641   6.5855

          k = 0.2488-0.3334 0.0000 (  5053 PWs)   bands (ev):

   -12.8018  -6.9830  -6.6488  -3.9412   1.0133   3.4934   5.1299   5.6044

          k = 0.2491-0.2384 0.0000 (  5038 PWs)   bands (ev):

   -13.2732  -7.5116  -5.9168  -3.0940   2.2654   2.7267   4.3671   4.7958

          k = 0.3326-0.1912 0.0000 (  5036 PWs)   bands (ev):

   -13.0453  -7.3680  -6.3278  -3.2736   2.2632   3.1597   4.8124   4.8170

          k = 0.3330-0.0962 0.0000 (  5043 PWs)   bands (ev):

   -13.2785  -7.6162  -5.6203  -3.4636   2.7773   3.3333   4.3882   4.8714

          k = 0.3333-0.0012 0.0000 (  5043 PWs)   bands (ev):

   -13.3595  -7.7048  -5.1476  -3.8192   2.6472   4.0025   4.2378   4.7401

          k = 0.3337 0.0938 0.0000 (  5043 PWs)   bands (ev):

   -13.2787  -7.6225  -5.5576  -3.5429   2.7785   3.3826   4.4069   4.8722

          k = 0.3340 0.1888 0.0000 (  5036 PWs)   bands (ev):

   -13.0460  -7.3803  -6.2581  -3.3688   2.3380   3.1610   4.7669   4.8201

          k = 0.3344 0.2838 0.0000 (  5056 PWs)   bands (ev):

   -12.6947  -7.0143  -6.8439  -3.8328   1.3815   3.7796   5.1517   5.4727

          k = 0.3306-0.7612 0.0000 (  5051 PWs)   bands (ev):

   -12.2934  -7.1988  -6.5959  -4.7312   0.6241   4.6015   6.0754   6.3519

          k = 0.3309-0.6662 0.0000 (  5056 PWs)   bands (ev):

   -11.9574  -7.2779  -6.2418  -5.6270   0.1154   5.4327   5.7276   7.4487

          k = 0.3313-0.5712 0.0000 (  5049 PWs)   bands (ev):

   -11.8224  -7.2363  -6.0942  -6.0324  -0.0838   5.4707   5.8067   7.8481

          k = 0.3316-0.4762 0.0000 (  5056 PWs)   bands (ev):

   -11.9551  -7.3353  -6.2289  -5.5645   0.0702   5.4382   5.7628   7.4254

          k = 0.3320-0.3812 0.0000 (  5051 PWs)   bands (ev):

   -12.2909  -7.2672  -6.5775  -4.6499   0.5513   4.6055   6.1085   6.4267

          k = 0.3323-0.2862 0.0000 (  5056 PWs)   bands (ev):

   -12.6932  -6.9973  -6.9137  -3.7409   1.3004   3.7809   5.2112   5.4752

          k = 0.4158-0.2390 0.0000 (  5035 PWs)   bands (ev):

   -12.4939  -7.3043  -6.8985  -3.6682   1.2581   4.2906   4.6329   6.0597

          k = 0.4162-0.1440 0.0000 (  5059 PWs)   bands (ev):

   -12.7014  -7.0958  -6.7415  -3.9539   1.9879   3.8374   5.2490   5.3905

          k = 0.4165-0.0490 0.0000 (  5060 PWs)   bands (ev):

   -12.8205  -7.2107  -6.0423  -4.6365   2.7996   3.5880   4.8086   5.7248

          k = 0.4168 0.0460 0.0000 (  5060 PWs)   bands (ev):

   -12.8209  -7.2150  -5.9927  -4.6928   2.8403   3.5887   4.8015   5.7257

          k = 0.4172 0.1410 0.0000 (  5059 PWs)   bands (ev):

   -12.7026  -7.1085  -6.6763  -4.0380   2.0634   3.8394   5.1997   5.3938

          k = 0.4175 0.2360 0.0000 (  5035 PWs)   bands (ev):

   -12.4963  -7.2382  -6.9176  -3.7588   1.3460   4.2883   4.5906   6.0626

          k = 0.4138-0.8090 0.0000 (  5051 PWs)   bands (ev):

   -12.2627  -7.4966  -6.6933  -4.1813   0.9079   4.8440   5.1166   6.7195

          k = 0.4141-0.7140 0.0000 (  5056 PWs)   bands (ev):

   -12.0757  -7.3684  -6.4979  -5.0787   0.7659   5.4009   5.9786   6.3176

          k = 0.4144-0.6190 0.0000 (  5053 PWs)   bands (ev):

   -11.9793  -6.8492  -6.3834  -6.0662   0.7893   5.1729   5.5151   7.6077

          k = 0.4148-0.5240 0.0000 (  5053 PWs)   bands (ev):

   -11.9780  -6.9184  -6.3767  -5.9938   0.7589   5.1947   5.5160   7.6005

          k = 0.4151-0.4290 0.0000 (  5056 PWs)   bands (ev):

   -12.0725  -7.4369  -6.4805  -4.9994   0.6930   5.4061   6.0272   6.3718

          k = 0.4155-0.3340 0.0000 (  5051 PWs)   bands (ev):

   -12.2594  -7.5636  -6.6719  -4.0945   0.8191   4.8680   5.1439   6.7402

          k =-0.4990 0.2868 0.0000 (  5038 PWs)   bands (ev):

   -12.2406  -7.7084  -6.7020  -3.7994   0.8738   4.5280   5.1584   6.6856

          k =-0.4986 0.3818 0.0000 (  5049 PWs)   bands (ev):

   -12.2645  -7.5073  -6.7153  -4.1623   1.0547   4.9617   5.0849   6.5759

          k =-0.4983 0.4768 0.0000 (  5054 PWs)   bands (ev):

   -12.3105  -6.9519  -6.7424  -5.0001   1.5030   4.6912   5.5061   6.4508

          k =-0.4979 0.5718 0.0000 (  5075 PWs)   bands (ev):

   -12.3331  -6.7593  -6.3129  -5.7672   1.8238   4.5862   4.9421   6.7893

          k =-0.4976 0.6668 0.0000 (  5054 PWs)   bands (ev):

   -12.3121  -6.8871  -6.7534  -5.0747   1.5649   4.6922   5.4771   6.3974

          k =-0.4973 0.7618 0.0000 (  5049 PWs)   bands (ev):

   -12.2676  -7.4420  -6.7346  -4.2464   1.1411   4.9606   5.0387   6.5642

          k =-0.5010-0.2832 0.0000 (  5038 PWs)   bands (ev):

   -12.2443  -7.6433  -6.7246  -3.8878   0.9665   4.4830   5.1605   6.6946

     the Fermi energy is    -1.1622 ev

!    total energy              =     -15.06908291 Ry
     estimated scf accuracy    <       0.00000031 Ry
     smearing contrib. (-TS)   =      -0.00016912 Ry
     internal energy E=F+TS    =     -15.06891378 Ry

     The total energy is F=E-TS. E is the sum of the following terms:
     one-electron contribution =     -65.66859415 Ry
     hartree contribution      =      34.41478922 Ry
     xc contribution           =      -7.30061388 Ry
     ewald contribution        =      23.48550502 Ry

     convergence has been achieved in   5 iterations

     negative rho (up, down):  3.422E-05 0.000E+00

     Forces acting on atoms (cartesian axes, Ry/au):

     atom    1 type  1   force =     0.00813352   -0.00065961    0.00000000
     atom    2 type  1   force =    -0.00773729    0.00067360    0.00000000
     atom    3 type  2   force =    -0.00019811   -0.00000700   -0.00004469
     atom    4 type  2   force =    -0.00019811   -0.00000700    0.00004469
     The non-local contrib.  to forces
     atom    1 type  1   force =     0.01163336   -0.34487169    0.00000000
     atom    2 type  1   force =    -0.00979109    0.34488983    0.00000000
     atom    3 type  2   force =    -0.00068017    0.00000222   -0.11091894
     atom    4 type  2   force =    -0.00068017    0.00000222    0.11091894
     The ionic contribution  to forces
     atom    1 type  1   force =     0.01803843    0.69499672    0.00000000
     atom    2 type  1   force =    -0.02694408   -0.69496294    0.00000000
     atom    3 type  2   force =     0.00445282   -0.00001689    2.57656205
     atom    4 type  2   force =     0.00445282   -0.00001689   -2.57656205
     The local contribution  to forces
     atom    1 type  1   force =    -0.02112428   -0.35813039    0.00000000
     atom    2 type  1   force =     0.02859151    0.35809371    0.00000000
     atom    3 type  2   force =    -0.00397088    0.00000750   -2.46564516
     atom    4 type  2   force =    -0.00397088    0.00000750    2.46564516
     The core correction contribution to forces
     atom    1 type  1   force =    -0.00041438    0.00714759   -0.00000000
     atom    2 type  1   force =     0.00040737   -0.00714785   -0.00000000
     atom    3 type  2   force =     0.00000000    0.00000000    0.00000000
     atom    4 type  2   force =     0.00000000    0.00000000    0.00000000
     The Hubbard contrib.    to forces
     atom    1 type  1   force =     0.00000000    0.00000000    0.00000000
     atom    2 type  1   force =     0.00000000    0.00000000    0.00000000
     atom    3 type  2   force =     0.00000000    0.00000000    0.00000000
     atom    4 type  2   force =     0.00000000    0.00000000    0.00000000
     The SCF correction term to forces
     atom    1 type  1   force =     0.00000017    0.00019852    0.00000000
     atom    2 type  1   force =    -0.00000121   -0.00019879    0.00000000
     atom    3 type  2   force =    -0.00000011    0.00000053   -0.00004263
     atom    4 type  2   force =    -0.00000011    0.00000053    0.00004263

     Total force =     0.011269     Total SCF correction =     0.000287

     Writing all to output data dir ./TMPDIR/pwscf.save/
 
     init_run     :      0.42s CPU      0.46s WALL (       1 calls)
     electrons    :      3.28s CPU      3.51s WALL (       1 calls)
     forces       :      0.15s CPU      0.16s WALL (       1 calls)

     Called by init_run:
     wfcinit      :      0.20s CPU      0.21s WALL (       1 calls)
     potinit      :      0.07s CPU      0.07s WALL (       1 calls)
     hinit0       :      0.13s CPU      0.15s WALL (       1 calls)

     Called by electrons:
     c_bands      :      2.76s CPU      2.92s WALL (       5 calls)
     sum_band     :      0.43s CPU      0.45s WALL (       5 calls)
     v_of_rho     :      0.06s CPU      0.06s WALL (       6 calls)
     newd         :      0.03s CPU      0.04s WALL (       6 calls)
     mix_rho      :      0.00s CPU      0.00s WALL (       5 calls)

     Called by c_bands:
     init_us_2    :      0.07s CPU      0.07s WALL (     888 calls)
     init_us_2:cp :      0.07s CPU      0.07s WALL (     888 calls)
     cegterg      :      2.63s CPU      2.78s WALL (     370 calls)

     Called by *egterg:
     cdiaghg      :      0.20s CPU      0.21s WALL (    2018 calls)
     h_psi        :      2.22s CPU      2.35s WALL (    2092 calls)
     s_psi        :      0.05s CPU      0.05s WALL (    2092 calls)
     g_psi        :      0.02s CPU      0.02s WALL (    1648 calls)

     Called by h_psi:
     h_psi:calbec :      0.10s CPU      0.11s WALL (    2092 calls)
     vloc_psi     :      2.05s CPU      2.16s WALL (    2092 calls)
     add_vuspsi   :      0.05s CPU      0.06s WALL (    2092 calls)

     General routines
     calbec       :      0.13s CPU      0.14s WALL (    2758 calls)
     fft          :      0.07s CPU      0.07s WALL (      87 calls)
     ffts         :      0.00s CPU      0.00s WALL (      11 calls)
     fftw         :      2.06s CPU      2.17s WALL (   23154 calls)
     interpolate  :      0.00s CPU      0.00s WALL (       6 calls)
 
     Parallel routines
 
     PWSCF        :      4.00s CPU      5.05s WALL

 
   This run was terminated on:  17:24: 5  12Mar2024            

=------------------------------------------------------------------------------=
   JOB DONE.
=------------------------------------------------------------------------------=
