
     Program PWSCF v.7.2 starts on  8Nov2023 at 16:50:49 

     This program is part of the open-source Quantum ESPRESSO suite
     for quantum simulation of materials; please cite
         "P. Giannozzi et al., J. Phys.:Condens. Matter 21 395502 (2009);
         "P. Giannozzi et al., J. Phys.:Condens. Matter 29 465901 (2017);
         "P. Giannozzi et al., J. Chem. Phys. 152 154105 (2020);
          URL http://www.quantum-espresso.org", 
     in publications or presentations arising from this work. More details at
     http://www.quantum-espresso.org/quote

     Parallel version (MPI), running on     4 processors

     MPI processes distributed on     1 nodes
     9320 MiB available memory on the printing compute node when the environment starts
 
     Reading input from espresso.pwi
Warning: card &CELL ignored
Warning: card / ignored

     Current dimensions of program PWSCF are:
     Max number of different atomic species (ntypx) = 10
     Max number of k-points (npk) =  40000
     Max angular momentum in pseudopotentials (lmaxx) =  4
     Presently no symmetry can be used with electric field

 
     R & G space division:  proc/nbgrp/npool/nimage =       4
     Subspace diagonalization in iterative solution of the eigenvalue problem:
     a serial algorithm will be used

 
     Parallelization info
     --------------------
     sticks:   dense  smooth     PW     G-vecs:    dense   smooth      PW
     Min        7666    3832    958              1011072   357408   44730
     Max        7670    3833    959              1011073   357411   44733
     Sum       30669   15329   3833              4044289  1429635  178925
 
     Using Slab Decomposition
 


     bravais-lattice index     =            0
     lattice parameter (alat)  =      28.3459  a.u.
     unit-cell volume          =   22775.6289 (a.u.)^3
     number of atoms/cell      =            3
     number of atomic types    =            2
     number of electrons       =         8.00
     number of Kohn-Sham states=            8
     kinetic-energy cutoff     =      60.0000  Ry
     charge density cutoff     =     480.0000  Ry
     scf convergence threshold =      1.0E-07
     mixing beta               =       0.7000
     number of iterations used =            8  plain     mixing
     Exchange-correlation=  SLA  PW   PBX  PBC
                           (   1   4   3   4   0   0   0)

     celldm(1)=  28.345892  celldm(2)=   0.000000  celldm(3)=   0.000000
     celldm(4)=   0.000000  celldm(5)=   0.000000  celldm(6)=   0.000000

     crystal axes: (cart. coord. in units of alat)
               a(1) = (   1.000000   0.000000   0.000000 )  
               a(2) = (   0.000000   1.000000   0.000000 )  
               a(3) = (   0.000000   0.000000   1.000000 )  

     reciprocal axes: (cart. coord. in units 2 pi/alat)
               b(1) = (  1.000000  0.000000  0.000000 )  
               b(2) = (  0.000000  1.000000  0.000000 )  
               b(3) = (  0.000000  0.000000  1.000000 )  


     PseudoPot. # 1 for O  read from file:
     /home/krojas/github_files/MatSciToolKit/tutorial/example_ase_ir_2/ir_1/o_pbe_v1.2.uspp.F.UPF
     MD5 check sum: 734c27235a0248c51dbae37a1fbe46ec
     Pseudo is Ultrasoft + core correction, Zval =  6.0
     Generated by new atomic code, or converted to UPF format
     Using radial grid of  737 points,  5 beta functions with: 
                l(1) =   0
                l(2) =   0
                l(3) =   1
                l(4) =   1
                l(5) =   2
     Q(r) pseudized with  8 coefficients,  rinner =    0.900   0.900   0.900
                                                       0.900   0.900

     PseudoPot. # 2 for H  read from file:
     /home/krojas/github_files/MatSciToolKit/tutorial/example_ase_ir_2/ir_1/h_pbe_v1.4.uspp.F.UPF
     MD5 check sum: 761ae9a214b05c3daf00ab9f6b793d6f
     Pseudo is Ultrasoft, Zval =  1.0
     Generated by new atomic code, or converted to UPF format
     Using radial grid of  615 points,  2 beta functions with: 
                l(1) =   0
                l(2) =   0
     Q(r) pseudized with  8 coefficients,  rinner =    0.700

     atomic species   valence    mass     pseudopotential
        O              6.00    15.99900     O ( 1.00)
        H              1.00     1.00800     H ( 1.00)

     No symmetry found



   Cartesian axes

     site n.     atom                  positions (alat units)
         1           O   tau(   1) = (   0.5000000   0.5006667   0.5201804  )
         2           H   tau(   2) = (   0.5000000   0.5513479   0.4798196  )
         3           H   tau(   3) = (   0.5000000   0.4486521   0.4798196  )

     number of k points=     1  Gaussian smearing, width (Ry)=  0.0100
                       cart. coord. in units 2pi/alat
        k(    1) = (   0.0000000   0.0000000   0.0000000), wk =   2.0000000

     Dense  grid:  4044289 G-vectors     FFT dimensions: ( 200, 200, 200)

     Smooth grid:  1429635 G-vectors     FFT dimensions: ( 144, 144, 144)

     Estimated max dynamical RAM per process >       2.25 GB

     Estimated total dynamical RAM >       9.02 GB

     Initial potential from superposition of free atoms

     starting charge       8.0000, renormalised to       8.0000

     negative rho (up, down):  5.057E-04 0.000E+00
 
     Adding external electric field

     Computed dipole along edir(3) : 
        Dipole               -0.0000 Ry au,         -0.0000 Debye
        Dipole field         -0.0000 Ry au, 
 
        Potential amp.        0.0000 Ry
        Total length         28.3431 bohr
 
     Starting wfcs are    6 randomized atomic wfcs +    2 random wfcs

     total cpu time spent up to now is        8.1 secs

     per-process dynamical memory:   488.9 Mb

     Self-consistent Calculation

     iteration #  1     ecut=    60.00 Ry     beta= 0.70
     Davidson diagonalization with overlap
     ethr =  1.00E-02,  avg # of iterations =  8.0

     negative rho (up, down):  1.823E-03 0.000E+00
 
     Adding external electric field

     Computed dipole along edir(3) : 
        Dipole               -0.7976 Ry au,         -2.0274 Debye
        Dipole field         -0.0004 Ry au, 
 
        Potential amp.        0.0249 Ry
        Total length         28.3431 bohr
 

     total cpu time spent up to now is       19.0 secs

     total energy              =     -34.47304244 Ry
     estimated scf accuracy    <       0.45783435 Ry

     iteration #  2     ecut=    60.00 Ry     beta= 0.70
     Davidson diagonalization with overlap
     ethr =  5.72E-03,  avg # of iterations =  2.0

     negative rho (up, down):  2.092E-03 0.000E+00
 
     Adding external electric field

     Computed dipole along edir(3) : 
        Dipole               -0.5813 Ry au,         -1.4776 Debye
        Dipole field         -0.0003 Ry au, 
 
        Potential amp.        0.0182 Ry
        Total length         28.3431 bohr
 

     total cpu time spent up to now is       28.6 secs

     total energy              =     -34.58567182 Ry
     estimated scf accuracy    <       0.45352724 Ry

     iteration #  3     ecut=    60.00 Ry     beta= 0.70
     Davidson diagonalization with overlap
     ethr =  5.67E-03,  avg # of iterations =  2.0

     negative rho (up, down):  2.375E-03 0.000E+00
 
     Adding external electric field

     Computed dipole along edir(3) : 
        Dipole               -0.7052 Ry au,         -1.7925 Debye
        Dipole field         -0.0004 Ry au, 
 
        Potential amp.        0.0221 Ry
        Total length         28.3431 bohr
 

     total cpu time spent up to now is       38.1 secs

     total energy              =     -34.66604325 Ry
     estimated scf accuracy    <       0.00373317 Ry

     iteration #  4     ecut=    60.00 Ry     beta= 0.70
     Davidson diagonalization with overlap
     ethr =  4.67E-05,  avg # of iterations =  8.0

     negative rho (up, down):  2.369E-03 0.000E+00
 
     Adding external electric field

     Computed dipole along edir(3) : 
        Dipole               -0.7034 Ry au,         -1.7878 Debye
        Dipole field         -0.0004 Ry au, 
 
        Potential amp.        0.0220 Ry
        Total length         28.3431 bohr
 

     total cpu time spent up to now is       49.1 secs

     total energy              =     -34.66704772 Ry
     estimated scf accuracy    <       0.00176227 Ry

     iteration #  5     ecut=    60.00 Ry     beta= 0.70
     Davidson diagonalization with overlap
     ethr =  2.20E-05,  avg # of iterations =  1.0

     negative rho (up, down):  2.410E-03 0.000E+00
 
     Adding external electric field

     Computed dipole along edir(3) : 
        Dipole               -0.7168 Ry au,         -1.8218 Debye
        Dipole field         -0.0004 Ry au, 
 
        Potential amp.        0.0224 Ry
        Total length         28.3431 bohr
 

     total cpu time spent up to now is       58.7 secs

     total energy              =     -34.66690373 Ry
     estimated scf accuracy    <       0.00035093 Ry

     iteration #  6     ecut=    60.00 Ry     beta= 0.70
     Davidson diagonalization with overlap
     ethr =  4.39E-06,  avg # of iterations = 16.0

     negative rho (up, down):  2.407E-03 0.000E+00
 
     Adding external electric field

     Computed dipole along edir(3) : 
        Dipole               -0.7097 Ry au,         -1.8038 Debye
        Dipole field         -0.0004 Ry au, 
 
        Potential amp.        0.0222 Ry
        Total length         28.3431 bohr
 

     total cpu time spent up to now is       69.7 secs

     total energy              =     -34.66702251 Ry
     estimated scf accuracy    <       0.00011503 Ry

     iteration #  7     ecut=    60.00 Ry     beta= 0.70
     Davidson diagonalization with overlap
     ethr =  1.44E-06,  avg # of iterations =  5.0

     negative rho (up, down):  2.414E-03 0.000E+00
 
     Adding external electric field

     Computed dipole along edir(3) : 
        Dipole               -0.7092 Ry au,         -1.8026 Debye
        Dipole field         -0.0004 Ry au, 
 
        Potential amp.        0.0222 Ry
        Total length         28.3431 bohr
 

     total cpu time spent up to now is       79.5 secs

     total energy              =     -34.66704076 Ry
     estimated scf accuracy    <       0.00000096 Ry

     iteration #  8     ecut=    60.00 Ry     beta= 0.70
     Davidson diagonalization with overlap
     ethr =  1.20E-08,  avg # of iterations =  2.0

     negative rho (up, down):  2.415E-03 0.000E+00
 
     Adding external electric field

     Computed dipole along edir(3) : 
        Dipole               -0.7091 Ry au,         -1.8023 Debye
        Dipole field         -0.0004 Ry au, 
 
        Potential amp.        0.0222 Ry
        Total length         28.3431 bohr
 

     total cpu time spent up to now is       89.2 secs

     total energy              =     -34.66704089 Ry
     estimated scf accuracy    <       0.00000018 Ry

     iteration #  9     ecut=    60.00 Ry     beta= 0.70
     Davidson diagonalization with overlap
     ethr =  2.20E-09,  avg # of iterations =  2.0

     negative rho (up, down):  2.415E-03 0.000E+00
 
     Adding external electric field

     Computed dipole along edir(3) : 
        Dipole               -0.7091 Ry au,         -1.8023 Debye
        Dipole field         -0.0004 Ry au, 
 
        Potential amp.        0.0222 Ry
        Total length         28.3431 bohr
 

     total cpu time spent up to now is       98.2 secs

     End of self-consistent calculation

          k = 0.0000 0.0000 0.0000 (178925 PWs)   bands (ev):

   -25.1335 -12.9360  -9.3037  -7.1874  -1.0059  -0.1160   0.2331   0.3602

     the Fermi energy is    -5.3330 ev

!    total energy              =     -34.66704091 Ry
     estimated scf accuracy    <          7.0E-09 Ry
     smearing contrib. (-TS)   =      -0.00000000 Ry
     internal energy E=F+TS    =     -34.66704091 Ry

     The total energy is F=E-TS. E is the sum of the following terms:
     one-electron contribution =     -69.44297354 Ry
     hartree contribution      =      36.19927854 Ry
     xc contribution           =      -8.67801847 Ry
     ewald contribution        =       7.25439515 Ry
     electric field correction =       0.00027741 Ry

     convergence has been achieved in   9 iterations

     negative rho (up, down):  2.415E-03 0.000E+00

     Forces acting on atoms (cartesian axes, Ry/au):

     atom    1 type  1   force =     0.00000117   -0.02512507    0.00043179
     atom    2 type  2   force =     0.00000015    0.01291616   -0.01009639
     atom    3 type  2   force =    -0.00000132    0.01220890    0.00966460
     The non-local contrib.  to forces
     atom    1 type  1   force =     0.00000246   -0.00481850   -2.17649822
     atom    2 type  2   force =     0.00000001   -0.19888500    0.14650462
     atom    3 type  2   force =    -0.00000043    0.19158473    0.13698596
     The ionic contribution  to forces
     atom    1 type  1   force =     0.00000000   -0.06114147    4.32372813
     atom    2 type  2   force =    -0.00000000    3.01496527   -2.21396016
     atom    3 type  2   force =    -0.00000000   -2.95382380   -2.10976797
     The local contribution  to forces
     atom    1 type  1   force =     0.00000441    0.04059848   -2.16330026
     atom    2 type  2   force =     0.00000042   -2.80316247    2.05655730
     atom    3 type  2   force =    -0.00000094    2.77444686    1.98164441
     The core correction contribution to forces
     atom    1 type  1   force =    -0.00000001    0.00024062    0.01161164
     atom    2 type  2   force =     0.00000000    0.00000000    0.00000000
     atom    3 type  2   force =     0.00000000    0.00000000    0.00000000
     The Hubbard contrib.    to forces
     atom    1 type  1   force =     0.00000000    0.00000000    0.00000000
     atom    2 type  2   force =     0.00000000    0.00000000    0.00000000
     atom    3 type  2   force =     0.00000000    0.00000000    0.00000000
     The SCF correction term to forces
     atom    1 type  1   force =    -0.00000596   -0.00000378    0.00018523
     atom    2 type  2   force =    -0.00000056   -0.00000123    0.00000889
     atom    3 type  2   force =    -0.00000023    0.00000152    0.00000924

     Total force =     0.033804     Total SCF correction =     0.000186

     Writing all to output data dir tmpdir/pwscf.save/
 
     init_run     :      6.68s CPU      8.02s WALL (       1 calls)
     electrons    :     75.26s CPU     90.28s WALL (       1 calls)
     forces       :      3.96s CPU      4.80s WALL (       1 calls)

     Called by init_run:
     wfcinit      :      0.47s CPU      0.52s WALL (       1 calls)
     potinit      :      1.75s CPU      2.14s WALL (       1 calls)
     hinit0       :      0.46s CPU      0.58s WALL (       1 calls)

     Called by electrons:
     c_bands      :     13.08s CPU     14.18s WALL (       9 calls)
     sum_band     :     29.13s CPU     34.26s WALL (       9 calls)
     v_of_rho     :     13.11s CPU     15.66s WALL (      10 calls)
     newd         :     17.89s CPU     24.48s WALL (      10 calls)
     mix_rho      :      3.69s CPU      4.02s WALL (       9 calls)

     Called by c_bands:
     init_us_2    :      0.19s CPU      0.19s WALL (      19 calls)
     init_us_2:cp :      0.19s CPU      0.19s WALL (      19 calls)
     cegterg      :     12.71s CPU     13.81s WALL (       9 calls)

     Called by *egterg:
     cdiaghg      :      0.01s CPU      0.01s WALL (      55 calls)
     h_psi        :     11.66s CPU     12.79s WALL (      56 calls)
     s_psi        :      0.17s CPU      0.17s WALL (      56 calls)
     g_psi        :      0.03s CPU      0.03s WALL (      46 calls)

     Called by h_psi:
     h_psi:calbec :      0.18s CPU      0.20s WALL (      56 calls)
     vloc_psi     :     11.23s CPU     12.34s WALL (      56 calls)
     add_vuspsi   :      0.19s CPU      0.19s WALL (      56 calls)

     General routines
     calbec       :      0.25s CPU      0.27s WALL (      69 calls)
     fft          :     12.04s CPU     15.34s WALL (     139 calls)
     ffts         :      0.55s CPU      0.70s WALL (      19 calls)
     fftw         :      8.84s CPU     10.00s WALL (     566 calls)
     interpolate  :      1.27s CPU      1.57s WALL (      10 calls)
 
     Parallel routines
 
     PWSCF        :   1m26.06s CPU   1m43.38s WALL

 
   This run was terminated on:  16:52:33   8Nov2023            

=------------------------------------------------------------------------------=
   JOB DONE.
=------------------------------------------------------------------------------=
