
     Program PWSCF v.7.2 starts on  8Nov2023 at 16:33:29 

     This program is part of the open-source Quantum ESPRESSO suite
     for quantum simulation of materials; please cite
         "P. Giannozzi et al., J. Phys.:Condens. Matter 21 395502 (2009);
         "P. Giannozzi et al., J. Phys.:Condens. Matter 29 465901 (2017);
         "P. Giannozzi et al., J. Chem. Phys. 152 154105 (2020);
          URL http://www.quantum-espresso.org", 
     in publications or presentations arising from this work. More details at
     http://www.quantum-espresso.org/quote

     Parallel version (MPI), running on     4 processors

     MPI processes distributed on     1 nodes
     9304 MiB available memory on the printing compute node when the environment starts
 
     Reading input from espresso.pwi
Warning: card &CELL ignored
Warning: card / ignored

     Current dimensions of program PWSCF are:
     Max number of different atomic species (ntypx) = 10
     Max number of k-points (npk) =  40000
     Max angular momentum in pseudopotentials (lmaxx) =  4
     Presently no symmetry can be used with electric field

 
     R & G space division:  proc/nbgrp/npool/nimage =       4
     Subspace diagonalization in iterative solution of the eigenvalue problem:
     a serial algorithm will be used

 
     Parallelization info
     --------------------
     sticks:   dense  smooth     PW     G-vecs:    dense   smooth      PW
     Min        7666    3832    958              1011072   357408   44730
     Max        7670    3833    959              1011073   357411   44733
     Sum       30669   15329   3833              4044289  1429635  178925
 
     Using Slab Decomposition
 


     bravais-lattice index     =            0
     lattice parameter (alat)  =      28.3459  a.u.
     unit-cell volume          =   22775.6289 (a.u.)^3
     number of atoms/cell      =            3
     number of atomic types    =            2
     number of electrons       =         8.00
     number of Kohn-Sham states=            8
     kinetic-energy cutoff     =      60.0000  Ry
     charge density cutoff     =     480.0000  Ry
     scf convergence threshold =      1.0E-07
     mixing beta               =       0.7000
     number of iterations used =            8  plain     mixing
     Exchange-correlation=  SLA  PW   PBX  PBC
                           (   1   4   3   4   0   0   0)

     celldm(1)=  28.345892  celldm(2)=   0.000000  celldm(3)=   0.000000
     celldm(4)=   0.000000  celldm(5)=   0.000000  celldm(6)=   0.000000

     crystal axes: (cart. coord. in units of alat)
               a(1) = (   1.000000   0.000000   0.000000 )  
               a(2) = (   0.000000   1.000000   0.000000 )  
               a(3) = (   0.000000   0.000000   1.000000 )  

     reciprocal axes: (cart. coord. in units 2 pi/alat)
               b(1) = (  1.000000  0.000000  0.000000 )  
               b(2) = (  0.000000  1.000000  0.000000 )  
               b(3) = (  0.000000  0.000000  1.000000 )  


     PseudoPot. # 1 for O  read from file:
     /home/krojas/github_files/MatSciToolKit/tutorial/example_ase_ir_2/ir_1/o_pbe_v1.2.uspp.F.UPF
     MD5 check sum: 734c27235a0248c51dbae37a1fbe46ec
     Pseudo is Ultrasoft + core correction, Zval =  6.0
     Generated by new atomic code, or converted to UPF format
     Using radial grid of  737 points,  5 beta functions with: 
                l(1) =   0
                l(2) =   0
                l(3) =   1
                l(4) =   1
                l(5) =   2
     Q(r) pseudized with  8 coefficients,  rinner =    0.900   0.900   0.900
                                                       0.900   0.900

     PseudoPot. # 2 for H  read from file:
     /home/krojas/github_files/MatSciToolKit/tutorial/example_ase_ir_2/ir_1/h_pbe_v1.4.uspp.F.UPF
     MD5 check sum: 761ae9a214b05c3daf00ab9f6b793d6f
     Pseudo is Ultrasoft, Zval =  1.0
     Generated by new atomic code, or converted to UPF format
     Using radial grid of  615 points,  2 beta functions with: 
                l(1) =   0
                l(2) =   0
     Q(r) pseudized with  8 coefficients,  rinner =    0.700

     atomic species   valence    mass     pseudopotential
        O              6.00    15.99900     O ( 1.00)
        H              1.00     1.00800     H ( 1.00)

     No symmetry found



   Cartesian axes

     site n.     atom                  positions (alat units)
         1           O   tau(   1) = (   0.4993333   0.5000000   0.5201804  )
         2           H   tau(   2) = (   0.5000000   0.5513479   0.4798196  )
         3           H   tau(   3) = (   0.5000000   0.4486521   0.4798196  )

     number of k points=     1  Gaussian smearing, width (Ry)=  0.0100
                       cart. coord. in units 2pi/alat
        k(    1) = (   0.0000000   0.0000000   0.0000000), wk =   2.0000000

     Dense  grid:  4044289 G-vectors     FFT dimensions: ( 200, 200, 200)

     Smooth grid:  1429635 G-vectors     FFT dimensions: ( 144, 144, 144)

     Estimated max dynamical RAM per process >       2.25 GB

     Estimated total dynamical RAM >       9.02 GB

     Initial potential from superposition of free atoms

     starting charge       8.0000, renormalised to       8.0000

     negative rho (up, down):  5.058E-04 0.000E+00
 
     Adding external electric field

     Computed dipole along edir(2) : 
        Dipole                0.0000 Ry au,          0.0000 Debye
        Dipole field          0.0000 Ry au, 
 
        Potential amp.       -0.0000 Ry
        Total length         28.3431 bohr
 
     Starting wfcs are    6 randomized atomic wfcs +    2 random wfcs

     total cpu time spent up to now is        9.2 secs

     per-process dynamical memory:   488.9 Mb

     Self-consistent Calculation

     iteration #  1     ecut=    60.00 Ry     beta= 0.70
     Davidson diagonalization with overlap
     ethr =  1.00E-02,  avg # of iterations =  8.0

     negative rho (up, down):  1.822E-03 0.000E+00
 
     Adding external electric field

     Computed dipole along edir(2) : 
        Dipole                0.0001 Ry au,          0.0002 Debye
        Dipole field          0.0000 Ry au, 
 
        Potential amp.       -0.0000 Ry
        Total length         28.3431 bohr
 

     total cpu time spent up to now is       20.8 secs

     total energy              =     -34.47403824 Ry
     estimated scf accuracy    <       0.45688185 Ry

     iteration #  2     ecut=    60.00 Ry     beta= 0.70
     Davidson diagonalization with overlap
     ethr =  5.71E-03,  avg # of iterations =  2.0

     negative rho (up, down):  2.092E-03 0.000E+00
 
     Adding external electric field

     Computed dipole along edir(2) : 
        Dipole                0.0001 Ry au,          0.0004 Debye
        Dipole field          0.0000 Ry au, 
 
        Potential amp.       -0.0000 Ry
        Total length         28.3431 bohr
 

     total cpu time spent up to now is       31.8 secs

     total energy              =     -34.58675386 Ry
     estimated scf accuracy    <       0.45082261 Ry

     iteration #  3     ecut=    60.00 Ry     beta= 0.70
     Davidson diagonalization with overlap
     ethr =  5.64E-03,  avg # of iterations =  2.0

     negative rho (up, down):  2.371E-03 0.000E+00
 
     Adding external electric field

     Computed dipole along edir(2) : 
        Dipole               -0.0001 Ry au,         -0.0002 Debye
        Dipole field         -0.0000 Ry au, 
 
        Potential amp.        0.0000 Ry
        Total length         28.3431 bohr
 

     total cpu time spent up to now is       42.5 secs

     total energy              =     -34.66655736 Ry
     estimated scf accuracy    <       0.00371023 Ry

     iteration #  4     ecut=    60.00 Ry     beta= 0.70
     Davidson diagonalization with overlap
     ethr =  4.64E-05,  avg # of iterations =  8.0

     negative rho (up, down):  2.367E-03 0.000E+00
 
     Adding external electric field

     Computed dipole along edir(2) : 
        Dipole               -0.0000 Ry au,         -0.0001 Debye
        Dipole field         -0.0000 Ry au, 
 
        Potential amp.        0.0000 Ry
        Total length         28.3431 bohr
 

     total cpu time spent up to now is       55.7 secs

     total energy              =     -34.66756425 Ry
     estimated scf accuracy    <       0.00176486 Ry

     iteration #  5     ecut=    60.00 Ry     beta= 0.70
     Davidson diagonalization with overlap
     ethr =  2.21E-05,  avg # of iterations =  1.0

     negative rho (up, down):  2.409E-03 0.000E+00
 
     Adding external electric field

     Computed dipole along edir(2) : 
        Dipole                0.0002 Ry au,          0.0005 Debye
        Dipole field          0.0000 Ry au, 
 
        Potential amp.       -0.0000 Ry
        Total length         28.3431 bohr
 

     total cpu time spent up to now is       66.6 secs

     total energy              =     -34.66741736 Ry
     estimated scf accuracy    <       0.00035297 Ry

     iteration #  6     ecut=    60.00 Ry     beta= 0.70
     Davidson diagonalization with overlap
     ethr =  4.41E-06,  avg # of iterations = 15.0

     negative rho (up, down):  2.405E-03 0.000E+00
 
     Adding external electric field

     Computed dipole along edir(2) : 
        Dipole                0.0000 Ry au,          0.0000 Debye
        Dipole field          0.0000 Ry au, 
 
        Potential amp.       -0.0000 Ry
        Total length         28.3431 bohr
 

     total cpu time spent up to now is       78.9 secs

     total energy              =     -34.66753783 Ry
     estimated scf accuracy    <       0.00012380 Ry

     iteration #  7     ecut=    60.00 Ry     beta= 0.70
     Davidson diagonalization with overlap
     ethr =  1.55E-06,  avg # of iterations =  4.0

     negative rho (up, down):  2.412E-03 0.000E+00
 
     Adding external electric field

     Computed dipole along edir(2) : 
        Dipole                0.0000 Ry au,          0.0000 Debye
        Dipole field          0.0000 Ry au, 
 
        Potential amp.       -0.0000 Ry
        Total length         28.3431 bohr
 

     total cpu time spent up to now is       89.6 secs

     total energy              =     -34.66755701 Ry
     estimated scf accuracy    <       0.00000126 Ry

     iteration #  8     ecut=    60.00 Ry     beta= 0.70
     Davidson diagonalization with overlap
     ethr =  1.57E-08,  avg # of iterations =  2.0

     negative rho (up, down):  2.413E-03 0.000E+00
 
     Adding external electric field

     Computed dipole along edir(2) : 
        Dipole               -0.0000 Ry au,         -0.0000 Debye
        Dipole field         -0.0000 Ry au, 
 
        Potential amp.        0.0000 Ry
        Total length         28.3431 bohr
 

     total cpu time spent up to now is       99.2 secs

     End of self-consistent calculation

          k = 0.0000 0.0000 0.0000 (178925 PWs)   bands (ev):

   -25.1325 -12.9365  -9.3069  -7.1893  -0.9901  -0.1058   0.2509   0.3787

     the Fermi energy is    -5.3188 ev

!    total energy              =     -34.66755732 Ry
     estimated scf accuracy    <       0.00000005 Ry
     smearing contrib. (-TS)   =      -0.00000000 Ry
     internal energy E=F+TS    =     -34.66755732 Ry

     The total energy is F=E-TS. E is the sum of the following terms:
     one-electron contribution =     -69.44220179 Ry
     hartree contribution      =      36.19941761 Ry
     xc contribution           =      -8.67791601 Ry
     ewald contribution        =       7.25314287 Ry
     electric field correction =       0.00000000 Ry

     convergence has been achieved in   8 iterations

     negative rho (up, down):  2.413E-03 0.000E+00

     Forces acting on atoms (cartesian axes, Ry/au):

     atom    1 type  1   force =     0.00000561   -0.00000070   -0.00012181
     atom    2 type  2   force =    -0.00000166   -0.00003289    0.00005984
     atom    3 type  2   force =    -0.00000395    0.00003359    0.00006197
     The non-local contrib.  to forces
     atom    1 type  1   force =     0.03589965   -0.00000657   -2.17339220
     atom    2 type  2   force =    -0.00234081   -0.19519911    0.14173737
     atom    3 type  2   force =    -0.00234171    0.19519950    0.14173820
     The ionic contribution  to forces
     atom    1 type  1   force =    -0.07138426    0.00000000    4.32163801
     atom    2 type  2   force =     0.03569213    2.98392553   -2.16081901
     atom    3 type  2   force =     0.03569213   -2.98392553   -2.16081901
     The local contribution  to forces
     atom    1 type  1   force =     0.03569459    0.00002972   -2.16056446
     atom    2 type  2   force =    -0.03334956   -2.78874707    2.01907479
     atom    3 type  2   force =    -0.03335213    2.78874818    2.01907476
     The core correction contribution to forces
     atom    1 type  1   force =    -0.00018980    0.00000013    0.01159344
     atom    2 type  2   force =     0.00000000    0.00000000    0.00000000
     atom    3 type  2   force =     0.00000000    0.00000000    0.00000000
     The Hubbard contrib.    to forces
     atom    1 type  1   force =     0.00000000    0.00000000    0.00000000
     atom    2 type  2   force =     0.00000000    0.00000000    0.00000000
     atom    3 type  2   force =     0.00000000    0.00000000    0.00000000
     The SCF correction term to forces
     atom    1 type  1   force =    -0.00001259   -0.00002397    0.00057542
     atom    2 type  2   force =    -0.00000143   -0.00001220    0.00003872
     atom    3 type  2   force =    -0.00000026    0.00001148    0.00004005

     Total force =     0.000157     Total SCF correction =     0.000579
     SCF correction compared to forces is large: reduce conv_thr to get better values

     Writing all to output data dir tmpdir/pwscf.save/
 
     init_run     :      7.56s CPU      9.08s WALL (       1 calls)
     electrons    :     75.32s CPU     90.20s WALL (       1 calls)
     forces       :      4.56s CPU      5.58s WALL (       1 calls)

     Called by init_run:
     wfcinit      :      0.51s CPU      0.60s WALL (       1 calls)
     potinit      :      1.95s CPU      2.33s WALL (       1 calls)
     hinit0       :      0.63s CPU      0.81s WALL (       1 calls)

     Called by electrons:
     c_bands      :     13.79s CPU     15.02s WALL (       8 calls)
     sum_band     :     28.98s CPU     34.18s WALL (       8 calls)
     v_of_rho     :     13.29s CPU     15.66s WALL (       9 calls)
     newd         :     17.34s CPU     24.00s WALL (       9 calls)
     mix_rho      :      3.63s CPU      3.92s WALL (       8 calls)

     Called by c_bands:
     init_us_2    :      0.18s CPU      0.18s WALL (      17 calls)
     init_us_2:cp :      0.18s CPU      0.18s WALL (      17 calls)
     cegterg      :     13.40s CPU     14.62s WALL (       8 calls)

     Called by *egterg:
     cdiaghg      :      0.01s CPU      0.01s WALL (      50 calls)
     h_psi        :     12.18s CPU     13.48s WALL (      51 calls)
     s_psi        :      0.19s CPU      0.19s WALL (      51 calls)
     g_psi        :      0.04s CPU      0.04s WALL (      42 calls)

     Called by h_psi:
     h_psi:calbec :      0.18s CPU      0.21s WALL (      51 calls)
     vloc_psi     :     11.74s CPU     13.00s WALL (      51 calls)
     add_vuspsi   :      0.19s CPU      0.21s WALL (      51 calls)

     General routines
     calbec       :      0.24s CPU      0.27s WALL (      63 calls)
     fft          :     12.10s CPU     15.04s WALL (     126 calls)
     ffts         :      0.60s CPU      0.74s WALL (      17 calls)
     fftw         :      9.60s CPU     10.97s WALL (     516 calls)
     interpolate  :      1.39s CPU      1.62s WALL (       9 calls)
 
     Parallel routines
 
     PWSCF        :   1m27.61s CPU   1m45.27s WALL

 
   This run was terminated on:  16:35:15   8Nov2023            

=------------------------------------------------------------------------------=
   JOB DONE.
=------------------------------------------------------------------------------=
